 Entering Gaussian System, Link 0=g09
 Input=ch2nh2p.gjf
 Output=ch2nh2p.log
 Initial command:
 /opt/g09_D01_em64t/g09/l1.exe "/tmp/Gau-10117.inp" -scrdir="/tmp/"
 Entering Link 1 = /opt/g09_D01_em64t/g09/l1.exe PID=     10118.
  
 Copyright (c) 1988,1990,1992,1993,1995,1998,2003,2009,2013,
            Gaussian, Inc.  All Rights Reserved.
  
 This is part of the Gaussian(R) 09 program.  It is based on
 the Gaussian(R) 03 system (copyright 2003, Gaussian, Inc.),
 the Gaussian(R) 98 system (copyright 1998, Gaussian, Inc.),
 the Gaussian(R) 94 system (copyright 1995, Gaussian, Inc.),
 the Gaussian 92(TM) system (copyright 1992, Gaussian, Inc.),
 the Gaussian 90(TM) system (copyright 1990, Gaussian, Inc.),
 the Gaussian 88(TM) system (copyright 1988, Gaussian, Inc.),
 the Gaussian 86(TM) system (copyright 1986, Carnegie Mellon
 University), and the Gaussian 82(TM) system (copyright 1983,
 Carnegie Mellon University). Gaussian is a federally registered
 trademark of Gaussian, Inc.
  
 This software contains proprietary and confidential information,
 including trade secrets, belonging to Gaussian, Inc.
  
 This software is provided under written license and may be
 used, copied, transmitted, or stored only in accord with that
 written license.
  
 The following legend is applicable only to US Government
 contracts under FAR:
  
                    RESTRICTED RIGHTS LEGEND
  
 Use, reproduction and disclosure by the US Government is
 subject to restrictions as set forth in subparagraphs (a)
 and (c) of the Commercial Computer Software - Restricted
 Rights clause in FAR 52.227-19.
  
 Gaussian, Inc.
 340 Quinnipiac St., Bldg. 40, Wallingford CT 06492
  
  
 ---------------------------------------------------------------
 Warning -- This program may not be used in any manner that
 competes with the business of Gaussian, Inc. or will provide
 assistance to any competitor of Gaussian, Inc.  The licensee
 of this program is prohibited from giving any competitor of
 Gaussian, Inc. access to this program.  By using this program,
 the user acknowledges that Gaussian, Inc. is engaged in the
 business of creating and licensing software in the field of
 computational chemistry and represents and warrants to the
 licensee that it is not a competitor of Gaussian, Inc. and that
 it will not use this program in any manner prohibited above.
 ---------------------------------------------------------------
  

 Cite this work as:
 Gaussian 09, Revision D.01,
 M. J. Frisch, G. W. Trucks, H. B. Schlegel, G. E. Scuseria, 
 M. A. Robb, J. R. Cheeseman, G. Scalmani, V. Barone, B. Mennucci, 
 G. A. Petersson, H. Nakatsuji, M. Caricato, X. Li, H. P. Hratchian, 
 A. F. Izmaylov, J. Bloino, G. Zheng, J. L. Sonnenberg, M. Hada, 
 M. Ehara, K. Toyota, R. Fukuda, J. Hasegawa, M. Ishida, T. Nakajima, 
 Y. Honda, O. Kitao, H. Nakai, T. Vreven, J. A. Montgomery, Jr., 
 J. E. Peralta, F. Ogliaro, M. Bearpark, J. J. Heyd, E. Brothers, 
 K. N. Kudin, V. N. Staroverov, T. Keith, R. Kobayashi, J. Normand, 
 K. Raghavachari, A. Rendell, J. C. Burant, S. S. Iyengar, J. Tomasi, 
 M. Cossi, N. Rega, J. M. Millam, M. Klene, J. E. Knox, J. B. Cross, 
 V. Bakken, C. Adamo, J. Jaramillo, R. Gomperts, R. E. Stratmann, 
 O. Yazyev, A. J. Austin, R. Cammi, C. Pomelli, J. W. Ochterski, 
 R. L. Martin, K. Morokuma, V. G. Zakrzewski, G. A. Voth, 
 P. Salvador, J. J. Dannenberg, S. Dapprich, A. D. Daniels, 
 O. Farkas, J. B. Foresman, J. V. Ortiz, J. Cioslowski, 
 and D. J. Fox, Gaussian, Inc., Wallingford CT, 2013.
 
 ******************************************
 Gaussian 09:  EM64L-G09RevD.01 24-Apr-2013
                 2-Apr-2015 
 ******************************************
 %chk=gau.chk
 ------------------------------------------
 # opt cam-b3lyp/6-31g(d) geom=connectivity
 ------------------------------------------
 1/14=-1,18=20,19=15,26=3,38=1,57=2/1,3;
 2/9=110,12=2,17=6,18=5,40=1/2;
 3/5=1,6=6,7=1,11=2,16=1,25=1,30=1,71=1,74=-40/1,2,3;
 4//1;
 5/5=2,38=5/2;
 6/7=2,8=2,9=2,10=2,28=1/1;
 7//1,2,3,16;
 1/14=-1,18=20,19=15,26=3/3(2);
 2/9=110/2;
 99//99;
 2/9=110/2;
 3/5=1,6=6,7=1,11=2,16=1,25=1,30=1,71=1,74=-40/1,2,3;
 4/5=5,16=3,69=1/1;
 5/5=2,38=5/2;
 7//1,2,3,16;
 1/14=-1,18=20,19=15,26=3/3(-5);
 2/9=110/2;
 6/7=2,8=2,9=2,10=2,19=2,28=1/1;
 99/9=1/99;
 -------------------
 Title Card Required
 -------------------
 Symbolic Z-matrix:
 Charge =  1 Multiplicity = 1
 C                     0.2594    0.27084   0. 
 H                     0.79537  -0.65525   0. 
 H                    -0.8106    0.26971   0. 
 N                     0.90502   1.3918    0. 
 H                     1.90502   1.39285   0. 
 H                     0.40411   2.2573    0. 
 

 GradGradGradGradGradGradGradGradGradGradGradGradGradGradGradGradGradGrad
 Berny optimization.
 Initialization pass.
                           ----------------------------
                           !    Initial Parameters    !
                           ! (Angstroms and Degrees)  !
 --------------------------                            --------------------------
 ! Name  Definition              Value          Derivative Info.                !
 --------------------------------------------------------------------------------
 ! R1    R(1,2)                  1.07           estimate D2E/DX2                !
 ! R2    R(1,3)                  1.07           estimate D2E/DX2                !
 ! R3    R(1,4)                  1.2936         estimate D2E/DX2                !
 ! R4    R(4,5)                  1.0            estimate D2E/DX2                !
 ! R5    R(4,6)                  1.0            estimate D2E/DX2                !
 ! A1    A(2,1,3)              120.0            estimate D2E/DX2                !
 ! A2    A(2,1,4)              120.0            estimate D2E/DX2                !
 ! A3    A(3,1,4)              120.0            estimate D2E/DX2                !
 ! A4    A(1,4,5)              120.0            estimate D2E/DX2                !
 ! A5    A(1,4,6)              120.0            estimate D2E/DX2                !
 ! A6    A(5,4,6)              120.0            estimate D2E/DX2                !
 ! D1    D(2,1,4,5)              0.0            estimate D2E/DX2                !
 ! D2    D(2,1,4,6)            180.0            estimate D2E/DX2                !
 ! D3    D(3,1,4,5)            180.0            estimate D2E/DX2                !
 ! D4    D(3,1,4,6)              0.0            estimate D2E/DX2                !
 --------------------------------------------------------------------------------
 Trust Radius=3.00D-01 FncErr=1.00D-07 GrdErr=1.00D-06
 Number of steps in this run=     25 maximum allowed number of steps=    100.
 GradGradGradGradGradGradGradGradGradGradGradGradGradGradGradGradGradGrad

                          Input orientation:                          
 ---------------------------------------------------------------------
 Center     Atomic      Atomic             Coordinates (Angstroms)
 Number     Number       Type             X           Y           Z
 ---------------------------------------------------------------------
      1          6           0        0.259396    0.270836    0.000000
      2          1           0        0.795369   -0.655249    0.000000
      3          1           0       -0.810603    0.269713    0.000000
      4          7           0        0.905020    1.391805    0.000000
      5          1           0        1.905020    1.392854    0.000000
      6          1           0        0.404112    2.257305    0.000000
 ---------------------------------------------------------------------
                    Distance matrix (angstroms):
                    1          2          3          4          5
     1  C    0.000000
     2  H    1.070000   0.000000
     3  H    1.070000   1.853294   0.000000
     4  N    1.293600   2.049989   2.049989   0.000000
     5  H    1.991733   2.329389   2.938716   1.000000   0.000000
     6  H    1.991733   2.938716   2.329389   1.000000   1.732051
                    6
     6  H    0.000000
 Stoichiometry    CH4N(1+)
 Framework group  C2V[C2(CN),SGV(H4)]
 Deg. of freedom     5
 Full point group                 C2V     NOp   4
 Largest Abelian subgroup         C2V     NOp   4
 Largest concise Abelian subgroup C2      NOp   2
                         Standard orientation:                         
 ---------------------------------------------------------------------
 Center     Atomic      Atomic             Coordinates (Angstroms)
 Number     Number       Type             X           Y           Z
 ---------------------------------------------------------------------
      1          6           0        0.000000    0.000000   -0.680729
      2          1           0        0.000000    0.926647   -1.215729
      3          1           0        0.000000   -0.926647   -1.215729
      4          7           0        0.000000    0.000000    0.612871
      5          1           0        0.000000    0.866025    1.112871
      6          1           0        0.000000   -0.866025    1.112871
 ---------------------------------------------------------------------
 Rotational constants (GHZ):    155.8596671     31.0153725     25.8677972
 Standard basis: 6-31G(d) (6D, 7F)
 There are    20 symmetry adapted cartesian basis functions of A1  symmetry.
 There are     2 symmetry adapted cartesian basis functions of A2  symmetry.
 There are     6 symmetry adapted cartesian basis functions of B1  symmetry.
 There are    10 symmetry adapted cartesian basis functions of B2  symmetry.
 There are    20 symmetry adapted basis functions of A1  symmetry.
 There are     2 symmetry adapted basis functions of A2  symmetry.
 There are     6 symmetry adapted basis functions of B1  symmetry.
 There are    10 symmetry adapted basis functions of B2  symmetry.
    38 basis functions,    72 primitive gaussians,    38 cartesian basis functions
     8 alpha electrons        8 beta electrons
       nuclear repulsion energy        38.7319558161 Hartrees.
 NAtoms=    6 NActive=    6 NUniq=    4 SFac= 2.25D+00 NAtFMM=   60 NAOKFM=F Big=F
 Integral buffers will be    131072 words long.
 Raffenetti 2 integral format.
 Two-electron integral symmetry is turned on.
 One-electron integrals computed using PRISM.
 NBasis=    38 RedAO= T EigKep=  1.73D-02  NBF=    20     2     6    10
 NBsUse=    38 1.00D-06 EigRej= -1.00D+00 NBFU=    20     2     6    10
 ExpMin= 1.61D-01 ExpMax= 4.17D+03 ExpMxC= 6.27D+02 IAcc=1 IRadAn=         1 AccDes= 0.00D+00
 Harris functional with IExCor=20419 and IRadAn=       1 diagonalized for initial guess.
 HarFok:  IExCor=20419 AccDes= 0.00D+00 IRadAn=         1 IDoV= 1 UseB2=F ITyADJ=14
 ICtDFT=  3500011 ScaDFX=  1.000000  1.000000  1.000000  1.000000
 FoFCou: FMM=F IPFlag=           0 FMFlag=      100000 FMFlg1=           0
         NFxFlg=           0 DoJE=T BraDBF=F KetDBF=T FulRan=T
         wScrn=  0.000000 ICntrl=     500 IOpCl=  0 I1Cent=   200000004 NGrid=           0
         NMat0=    1 NMatS0=      1 NMatT0=    0 NMatD0=    1 NMtDS0=    0 NMtDT0=    0
 Petite list used in FoFCou.
 Initial guess orbital symmetries:
       Occupied  (A1) (A1) (A1) (A1) (B2) (A1) (B2) (B1)
       Virtual   (B1) (A1) (B2) (A1) (B2) (A1) (B1) (A1) (B2) (A1)
                 (B1) (A1) (B2) (B2) (A1) (A1) (A1) (B2) (B1) (A2)
                 (A2) (A1) (B2) (A1) (A1) (B1) (A1) (B2) (A1) (A1)
 The electronic state of the initial guess is 1-A1.
 Keep R1 ints in memory in symmetry-blocked form, NReq=1436518.
 Requested convergence on RMS density matrix=1.00D-08 within 128 cycles.
 Requested convergence on MAX density matrix=1.00D-06.
 Requested convergence on             energy=1.00D-06.
 No special actions if energy rises.
 Integral accuracy reduced to 1.0D-05 until final iterations.
 Initial convergence to 1.0D-05 achieved.  Increase integral accuracy.
 SCF Done:  E(RCAM-B3LYP) =  -94.9174766282     A.U. after   12 cycles
            NFock= 12  Conv=0.24D-08     -V/T= 2.0094

 **********************************************************************

            Population analysis using the SCF density.

 **********************************************************************

 Orbital symmetries:
       Occupied  (A1) (A1) (A1) (A1) (B2) (A1) (B2) (B1)
       Virtual   (B1) (A1) (B2) (A1) (B2) (A1) (A1) (B1) (B2) (A1)
                 (B1) (A1) (B2) (B2) (A1) (A1) (A1) (B2) (B1) (A2)
                 (A2) (A1) (B2) (A1) (A1) (B1) (A1) (B2) (A1) (A1)
 The electronic state is 1-A1.
 Alpha  occ. eigenvalues --  -14.76004 -10.62150  -1.32791  -1.03069  -0.92853
 Alpha  occ. eigenvalues --   -0.85854  -0.75562  -0.71533
 Alpha virt. eigenvalues --   -0.26642  -0.11203  -0.07154  -0.04264   0.03920
 Alpha virt. eigenvalues --    0.08872   0.33214   0.33380   0.37556   0.44696
 Alpha virt. eigenvalues --    0.50559   0.50666   0.63203   0.69738   0.70104
 Alpha virt. eigenvalues --    0.74711   0.99688   1.16672   1.20479   1.25516
 Alpha virt. eigenvalues --    1.57062   1.67577   1.83654   1.93307   2.14975
 Alpha virt. eigenvalues --    2.16541   2.44355   2.50170   3.53789   3.88539
          Condensed to atoms (all electrons):
               1          2          3          4          5          6
     1  C    4.805056   0.375424   0.375424   0.489113  -0.025095  -0.025095
     2  H    0.375424   0.368886  -0.016850  -0.029350  -0.003261   0.002320
     3  H    0.375424  -0.016850   0.368886  -0.029350   0.002320  -0.003261
     4  N    0.489113  -0.029350  -0.029350   6.447864   0.316200   0.316200
     5  H   -0.025095  -0.003261   0.002320   0.316200   0.272921  -0.013006
     6  H   -0.025095   0.002320  -0.003261   0.316200  -0.013006   0.272921
 Mulliken charges:
               1
     1  C    0.005171
     2  H    0.302831
     3  H    0.302831
     4  N   -0.510676
     5  H    0.449921
     6  H    0.449921
 Sum of Mulliken charges =   1.00000
 Mulliken charges with hydrogens summed into heavy atoms:
               1
     1  C    0.610833
     4  N    0.389167
 Electronic spatial extent (au):  <R**2>=             68.1527
 Charge=              1.0000 electrons
 Dipole moment (field-independent basis, Debye):
    X=              0.0000    Y=              0.0000    Z=              0.2759  Tot=              0.2759
 Quadrupole moment (field-independent basis, Debye-Ang):
   XX=            -12.1504   YY=             -7.1511   ZZ=             -4.8335
   XY=              0.0000   XZ=              0.0000   YZ=              0.0000
 Traceless Quadrupole moment (field-independent basis, Debye-Ang):
   XX=             -4.1054   YY=              0.8939   ZZ=              3.2115
   XY=              0.0000   XZ=              0.0000   YZ=              0.0000
 Octapole moment (field-independent basis, Debye-Ang**2):
  XXX=              0.0000  YYY=              0.0000  ZZZ=              2.6819  XYY=              0.0000
  XXY=              0.0000  XXZ=              0.1409  XZZ=              0.0000  YZZ=              0.0000
  YYZ=              1.4886  XYZ=              0.0000
 Hexadecapole moment (field-independent basis, Debye-Ang**3):
 XXXX=            -10.2950 YYYY=            -13.7818 ZZZZ=            -40.0153 XXXY=              0.0000
 XXXZ=              0.0000 YYYX=              0.0000 YYYZ=              0.0000 ZZZX=              0.0000
 ZZZY=              0.0000 XXYY=             -4.9615 XXZZ=            -10.1335 YYZZ=             -4.3911
 XXYZ=              0.0000 YYXZ=              0.0000 ZZXY=              0.0000
 N-N= 3.873195581609D+01 E-N=-2.926950959394D+02  KE= 9.403772277192D+01
 Symmetry A1   KE= 8.591918838287D+01
 Symmetry A2   KE= 1.854336368475D-34
 Symmetry B1   KE= 2.981185056382D+00
 Symmetry B2   KE= 5.137349332673D+00
 Calling FoFJK, ICntrl=      2127 FMM=F ISym2X=1 I1Cent= 0 IOpClX= 0 NMat=1 NMatS=1 NMatT=0.
 ***** Axes restored to original set *****
 -------------------------------------------------------------------
 Center     Atomic                   Forces (Hartrees/Bohr)
 Number     Number              X              Y              Z
 -------------------------------------------------------------------
      1        6           0.016650497    0.028909530    0.000000000
      2        1           0.007810114   -0.010263947    0.000000000
      3        1          -0.012797292    0.001604927    0.000000000
      4        7          -0.025836858   -0.044859408    0.000000000
      5        1           0.019017836    0.005432729    0.000000000
      6        1          -0.004844296    0.019176168    0.000000000
 -------------------------------------------------------------------
 Cartesian Forces:  Max     0.044859408 RMS     0.016512601

 GradGradGradGradGradGradGradGradGradGradGradGradGradGradGradGradGradGrad
 Berny optimization.
 FormGI is forming the generalized inverse of G from B-inverse, IUseBI=4.
 Internal  Forces:  Max     0.023369129 RMS     0.010564876
 Search for a local minimum.
 Step number   1 out of a maximum of   25
 All quantities printed in internal units (Hartrees-Bohrs-Radians)
 Mixed Optimization -- RFO/linear search
 Second derivative matrix not updated -- first step.
 The second derivative matrix:
                          R1        R2        R3        R4        R5
           R1           0.37230
           R2           0.00000   0.37230
           R3           0.00000   0.00000   0.69002
           R4           0.00000   0.00000   0.00000   0.47688
           R5           0.00000   0.00000   0.00000   0.00000   0.47688
           A1           0.00000   0.00000   0.00000   0.00000   0.00000
           A2           0.00000   0.00000   0.00000   0.00000   0.00000
           A3           0.00000   0.00000   0.00000   0.00000   0.00000
           A4           0.00000   0.00000   0.00000   0.00000   0.00000
           A5           0.00000   0.00000   0.00000   0.00000   0.00000
           A6           0.00000   0.00000   0.00000   0.00000   0.00000
           D1           0.00000   0.00000   0.00000   0.00000   0.00000
           D2           0.00000   0.00000   0.00000   0.00000   0.00000
           D3           0.00000   0.00000   0.00000   0.00000   0.00000
           D4           0.00000   0.00000   0.00000   0.00000   0.00000
                          A1        A2        A3        A4        A5
           A1           0.16000
           A2           0.00000   0.16000
           A3           0.00000   0.00000   0.16000
           A4           0.00000   0.00000   0.00000   0.16000
           A5           0.00000   0.00000   0.00000   0.00000   0.16000
           A6           0.00000   0.00000   0.00000   0.00000   0.00000
           D1           0.00000   0.00000   0.00000   0.00000   0.00000
           D2           0.00000   0.00000   0.00000   0.00000   0.00000
           D3           0.00000   0.00000   0.00000   0.00000   0.00000
           D4           0.00000   0.00000   0.00000   0.00000   0.00000
                          A6        D1        D2        D3        D4
           A6           0.16000
           D1           0.00000   0.03099
           D2           0.00000   0.00000   0.03099
           D3           0.00000   0.00000   0.00000   0.03099
           D4           0.00000   0.00000   0.00000   0.00000   0.03099
 ITU=  0
     Eigenvalues ---    0.03099   0.03099   0.03099   0.16000   0.16000
     Eigenvalues ---    0.16000   0.16000   0.37230   0.37230   0.47688
     Eigenvalues ---    0.47688   0.69002
 RFO step:  Lambda=-3.63449337D-03 EMin= 3.09924824D-02
 Linear search not attempted -- first point.
 Iteration  1 RMS(Cart)=  0.01835827 RMS(Int)=  0.00031742
 Iteration  2 RMS(Cart)=  0.00031218 RMS(Int)=  0.00000008
 Iteration  3 RMS(Cart)=  0.00000008 RMS(Int)=  0.00000000
 ClnCor:  largest displacement from symmetrization is 8.30D-12 for atom     4.
 Variable       Old X    -DE/DX   Delta X   Delta X   Delta X     New X
                                 (Linear)    (Quad)   (Total)
    R1        2.02201   0.01280   0.00000   0.03404   0.03404   2.05604
    R2        2.02201   0.01280   0.00000   0.03404   0.03404   2.05604
    R3        2.44455  -0.02337   0.00000  -0.03369  -0.03369   2.41086
    R4        1.88973   0.01902   0.00000   0.03959   0.03959   1.92932
    R5        1.88973   0.01902   0.00000   0.03959   0.03959   1.92932
    A1        2.09440   0.00218   0.00000   0.01333   0.01333   2.10773
    A2        2.09440  -0.00109   0.00000  -0.00667  -0.00667   2.08773
    A3        2.09440  -0.00109   0.00000  -0.00667  -0.00667   2.08773
    A4        2.09440   0.00341   0.00000   0.02084   0.02084   2.11523
    A5        2.09440   0.00341   0.00000   0.02084   0.02084   2.11523
    A6        2.09440  -0.00682   0.00000  -0.04167  -0.04167   2.05272
    D1        0.00000   0.00000   0.00000   0.00000   0.00000   0.00000
    D2        3.14159   0.00000   0.00000   0.00000   0.00000   3.14159
    D3        3.14159   0.00000   0.00000   0.00000   0.00000   3.14159
    D4        0.00000   0.00000   0.00000   0.00000   0.00000   0.00000
         Item               Value     Threshold  Converged?
 Maximum Force            0.023369     0.000450     NO 
 RMS     Force            0.010565     0.000300     NO 
 Maximum Displacement     0.033795     0.001800     NO 
 RMS     Displacement     0.018367     0.001200     NO 
 Predicted change in Energy=-1.834433D-03
 GradGradGradGradGradGradGradGradGradGradGradGradGradGradGradGradGradGrad

                          Input orientation:                          
 ---------------------------------------------------------------------
 Center     Atomic      Atomic             Coordinates (Angstroms)
 Number     Number       Type             X           Y           Z
 ---------------------------------------------------------------------
      1          6           0        0.259508    0.271029    0.000000
      2          1           0        0.810767   -0.666991    0.000000
      3          1           0       -0.828487    0.277140    0.000000
      4          7           0        0.896234    1.376549    0.000000
      5          1           0        1.916939    1.398892    0.000000
      6          1           0        0.403353    2.270645    0.000000
 ---------------------------------------------------------------------
                    Distance matrix (angstroms):
                    1          2          3          4          5
     1  C    0.000000
     2  H    1.088011   0.000000
     3  H    1.088011   1.891702   0.000000
     4  N    1.275772   2.045327   2.045327   0.000000
     5  H    2.004783   2.343393   2.965753   1.020950   0.000000
     6  H    2.004783   2.965753   2.343393   1.020950   1.746682
                    6
     6  H    0.000000
 Stoichiometry    CH4N(1+)
 Framework group  C2V[C2(CN),SGV(H4)]
 Deg. of freedom     5
 Full point group                 C2V     NOp   4
 Largest Abelian subgroup         C2V     NOp   4
 Largest concise Abelian subgroup C2      NOp   2
                         Standard orientation:                         
 ---------------------------------------------------------------------
 Center     Atomic      Atomic             Coordinates (Angstroms)
 Number     Number       Type             X           Y           Z
 ---------------------------------------------------------------------
      1          6           0        0.000000    0.000000   -0.674359
      2          1           0        0.000000    0.945851   -1.212071
      3          1           0        0.000000   -0.945851   -1.212071
      4          7           0        0.000000    0.000000    0.601414
      5          1           0        0.000000    0.873341    1.130199
      6          1           0        0.000000   -0.873341    1.130199
 ---------------------------------------------------------------------
 Rotational constants (GHZ):    151.2814337     31.4740214     26.0535867
 Standard basis: 6-31G(d) (6D, 7F)
 There are    20 symmetry adapted cartesian basis functions of A1  symmetry.
 There are     2 symmetry adapted cartesian basis functions of A2  symmetry.
 There are     6 symmetry adapted cartesian basis functions of B1  symmetry.
 There are    10 symmetry adapted cartesian basis functions of B2  symmetry.
 There are    20 symmetry adapted basis functions of A1  symmetry.
 There are     2 symmetry adapted basis functions of A2  symmetry.
 There are     6 symmetry adapted basis functions of B1  symmetry.
 There are    10 symmetry adapted basis functions of B2  symmetry.
    38 basis functions,    72 primitive gaussians,    38 cartesian basis functions
     8 alpha electrons        8 beta electrons
       nuclear repulsion energy        38.6949080401 Hartrees.
 NAtoms=    6 NActive=    6 NUniq=    4 SFac= 2.25D+00 NAtFMM=   60 NAOKFM=F Big=F
 Integral buffers will be    131072 words long.
 Raffenetti 2 integral format.
 Two-electron integral symmetry is turned on.
 One-electron integrals computed using PRISM.
 NBasis=    38 RedAO= T EigKep=  1.65D-02  NBF=    20     2     6    10
 NBsUse=    38 1.00D-06 EigRej= -1.00D+00 NBFU=    20     2     6    10
 Initial guess from the checkpoint file:  "gau.chk"
 B after Tr=     0.000000    0.000000    0.000000
         Rot=    1.000000    0.000000    0.000000    0.000000 Ang=   0.00 deg.
 Initial guess orbital symmetries:
       Occupied  (A1) (A1) (A1) (A1) (B2) (A1) (B2) (B1)
       Virtual   (A1) (A1) (A1) (A1) (A1) (A1) (A1) (A1) (A1) (A1)
                 (A1) (A1) (A1) (A1) (A1) (A2) (A2) (B1) (B1) (B1)
                 (B1) (B1) (B2) (B2) (B2) (B2) (B2) (B2) (B2) (B2)
 ExpMin= 1.61D-01 ExpMax= 4.17D+03 ExpMxC= 6.27D+02 IAcc=1 IRadAn=         1 AccDes= 0.00D+00
 Harris functional with IExCor=20419 and IRadAn=       1 diagonalized for initial guess.
 HarFok:  IExCor=20419 AccDes= 0.00D+00 IRadAn=         1 IDoV= 1 UseB2=F ITyADJ=14
 ICtDFT=  3500011 ScaDFX=  1.000000  1.000000  1.000000  1.000000
 FoFCou: FMM=F IPFlag=           0 FMFlag=      100000 FMFlg1=           0
         NFxFlg=           0 DoJE=T BraDBF=F KetDBF=T FulRan=T
         wScrn=  0.000000 ICntrl=     500 IOpCl=  0 I1Cent=   200000004 NGrid=           0
         NMat0=    1 NMatS0=      1 NMatT0=    0 NMatD0=    1 NMtDS0=    0 NMtDT0=    0
 Petite list used in FoFCou.
 Keep R1 ints in memory in symmetry-blocked form, NReq=1436518.
 Requested convergence on RMS density matrix=1.00D-08 within 128 cycles.
 Requested convergence on MAX density matrix=1.00D-06.
 Requested convergence on             energy=1.00D-06.
 No special actions if energy rises.
 Integral accuracy reduced to 1.0D-05 until final iterations.
 Initial convergence to 1.0D-05 achieved.  Increase integral accuracy.
 SCF Done:  E(RCAM-B3LYP) =  -94.9193783128     A.U. after   11 cycles
            NFock= 11  Conv=0.30D-08     -V/T= 2.0101
 Calling FoFJK, ICntrl=      2127 FMM=F ISym2X=1 I1Cent= 0 IOpClX= 0 NMat=1 NMatS=1 NMatT=0.
 ***** Axes restored to original set *****
 -------------------------------------------------------------------
 Center     Atomic                   Forces (Hartrees/Bohr)
 Number     Number              X              Y              Z
 -------------------------------------------------------------------
      1        6           0.000347987    0.000604195    0.000000000
      2        1          -0.000532178    0.000280220    0.000000000
      3        1           0.000509439   -0.000319701    0.000000000
      4        7          -0.002576577   -0.004473598    0.000000000
      5        1           0.000415657    0.002363372    0.000000000
      6        1           0.001835672    0.001545512    0.000000000
 -------------------------------------------------------------------
 Cartesian Forces:  Max     0.004473598 RMS     0.001479077

 GradGradGradGradGradGradGradGradGradGradGradGradGradGradGradGradGradGrad
 Berny optimization.
 Using GEDIIS/GDIIS optimizer.
 FormGI is forming the generalized inverse of G from B-inverse, IUseBI=4.
 Internal  Forces:  Max     0.003027366 RMS     0.001013720
 Search for a local minimum.
 Step number   2 out of a maximum of   25
 All quantities printed in internal units (Hartrees-Bohrs-Radians)
 Mixed Optimization -- RFO/linear search
 Update second derivatives using D2CorX and points    1    2
 DE= -1.90D-03 DEPred=-1.83D-03 R= 1.04D+00
 TightC=F SS=  1.41D+00  RLast= 9.73D-02 DXNew= 5.0454D-01 2.9176D-01
 Trust test= 1.04D+00 RLast= 9.73D-02 DXMaxT set to 3.00D-01
 The second derivative matrix:
                          R1        R2        R3        R4        R5
           R1           0.37933
           R2           0.00702   0.37933
           R3          -0.00631  -0.00631   0.69039
           R4           0.00554   0.00554  -0.00100   0.47827
           R5           0.00554   0.00554  -0.00100   0.00139   0.47827
           A1           0.00264   0.00264  -0.00355   0.00297   0.00297
           A2          -0.00132  -0.00132   0.00178  -0.00148  -0.00148
           A3          -0.00132  -0.00132   0.00178  -0.00148  -0.00148
           A4          -0.00438  -0.00438   0.00897  -0.00723  -0.00723
           A5          -0.00438  -0.00438   0.00897  -0.00723  -0.00723
           A6           0.00876   0.00876  -0.01794   0.01445   0.01445
           D1           0.00000   0.00000   0.00000   0.00000   0.00000
           D2           0.00000   0.00000   0.00000   0.00000   0.00000
           D3           0.00000   0.00000   0.00000   0.00000   0.00000
           D4           0.00000   0.00000   0.00000   0.00000   0.00000
                          A1        A2        A3        A4        A5
           A1           0.16073
           A2          -0.00037   0.16018
           A3          -0.00037   0.00018   0.16018
           A4          -0.00053   0.00026   0.00026   0.15796
           A5          -0.00053   0.00026   0.00026  -0.00204   0.15796
           A6           0.00106  -0.00053  -0.00053   0.00408   0.00408
           D1           0.00000   0.00000   0.00000   0.00000   0.00000
           D2           0.00000   0.00000   0.00000   0.00000   0.00000
           D3           0.00000   0.00000   0.00000   0.00000   0.00000
           D4           0.00000   0.00000   0.00000   0.00000   0.00000
                          A6        D1        D2        D3        D4
           A6           0.15184
           D1           0.00000   0.03099
           D2           0.00000   0.00000   0.03099
           D3           0.00000   0.00000   0.00000   0.03099
           D4           0.00000   0.00000   0.00000   0.00000   0.03099
 ITU=  1  0
 Use linear search instead of GDIIS.
     Eigenvalues ---    0.03099   0.03099   0.03099   0.14418   0.16000
     Eigenvalues ---    0.16000   0.16093   0.37230   0.38541   0.47688
     Eigenvalues ---    0.48309   0.69165
 RFO step:  Lambda=-8.96538846D-05 EMin= 3.09924824D-02
 Quartic linear search produced a step of  0.06173.
 Iteration  1 RMS(Cart)=  0.00635435 RMS(Int)=  0.00004023
 Iteration  2 RMS(Cart)=  0.00003964 RMS(Int)=  0.00000000
 Iteration  3 RMS(Cart)=  0.00000000 RMS(Int)=  0.00000000
 ClnCor:  largest displacement from symmetrization is 5.63D-12 for atom     1.
 Variable       Old X    -DE/DX   Delta X   Delta X   Delta X     New X
                                 (Linear)    (Quad)   (Total)
    R1        2.05604  -0.00051   0.00210  -0.00270  -0.00060   2.05545
    R2        2.05604  -0.00051   0.00210  -0.00270  -0.00060   2.05545
    R3        2.41086  -0.00065  -0.00208   0.00025  -0.00183   2.40903
    R4        1.92932   0.00047   0.00244  -0.00042   0.00203   1.93134
    R5        1.92932   0.00047   0.00244  -0.00042   0.00203   1.93134
    A1        2.10773  -0.00043   0.00082  -0.00334  -0.00252   2.10521
    A2        2.08773   0.00022  -0.00041   0.00167   0.00126   2.08899
    A3        2.08773   0.00022  -0.00041   0.00167   0.00126   2.08899
    A4        2.11523   0.00151   0.00129   0.00932   0.01060   2.12583
    A5        2.11523   0.00151   0.00129   0.00932   0.01060   2.12583
    A6        2.05272  -0.00303  -0.00257  -0.01863  -0.02121   2.03152
    D1        0.00000   0.00000   0.00000   0.00000   0.00000   0.00000
    D2        3.14159   0.00000   0.00000   0.00000   0.00000   3.14159
    D3        3.14159   0.00000   0.00000   0.00000   0.00000   3.14159
    D4        0.00000   0.00000   0.00000   0.00000   0.00000   0.00000
         Item               Value     Threshold  Converged?
 Maximum Force            0.003027     0.000450     NO 
 RMS     Force            0.001014     0.000300     NO 
 Maximum Displacement     0.014939     0.001800     NO 
 RMS     Displacement     0.006364     0.001200     NO 
 Predicted change in Energy=-5.030727D-05
 GradGradGradGradGradGradGradGradGradGradGradGradGradGradGradGradGradGrad

                          Input orientation:                          
 ---------------------------------------------------------------------
 Center     Atomic      Atomic             Coordinates (Angstroms)
 Number     Number       Type             X           Y           Z
 ---------------------------------------------------------------------
      1          6           0        0.258292    0.268918    0.000000
      2          1           0        0.808209   -0.669522    0.000000
      3          1           0       -0.829392    0.273657    0.000000
      4          7           0        0.894535    1.373598    0.000000
      5          1           0        1.916018    1.406797    0.000000
      6          1           0        0.410653    2.273815    0.000000
 ---------------------------------------------------------------------
                    Distance matrix (angstroms):
                    1          2          3          4          5
     1  C    0.000000
     2  H    1.087695   0.000000
     3  H    1.087695   1.889795   0.000000
     4  N    1.274803   2.044944   2.044944   0.000000
     5  H    2.010677   2.353368   2.970065   1.022023   0.000000
     6  H    2.010677   2.970065   2.353368   1.022023   1.737194
                    6
     6  H    0.000000
 Stoichiometry    CH4N(1+)
 Framework group  C2V[C2(CN),SGV(H4)]
 Deg. of freedom     5
 Full point group                 C2V     NOp   4
 Largest Abelian subgroup         C2V     NOp   4
 Largest concise Abelian subgroup C2      NOp   2
                         Standard orientation:                         
 ---------------------------------------------------------------------
 Center     Atomic      Atomic             Coordinates (Angstroms)
 Number     Number       Type             X           Y           Z
 ---------------------------------------------------------------------
      1          6           0        0.000000    0.000000   -0.674876
      2          1           0        0.000000    0.944898   -1.213623
      3          1           0        0.000000   -0.944898   -1.213623
      4          7           0        0.000000    0.000000    0.599927
      5          1           0        0.000000    0.868597    1.138508
      6          1           0        0.000000   -0.868597    1.138508
 ---------------------------------------------------------------------
 Rotational constants (GHZ):    152.2058596     31.4170951     26.0417657
 Standard basis: 6-31G(d) (6D, 7F)
 There are    20 symmetry adapted cartesian basis functions of A1  symmetry.
 There are     2 symmetry adapted cartesian basis functions of A2  symmetry.
 There are     6 symmetry adapted cartesian basis functions of B1  symmetry.
 There are    10 symmetry adapted cartesian basis functions of B2  symmetry.
 There are    20 symmetry adapted basis functions of A1  symmetry.
 There are     2 symmetry adapted basis functions of A2  symmetry.
 There are     6 symmetry adapted basis functions of B1  symmetry.
 There are    10 symmetry adapted basis functions of B2  symmetry.
    38 basis functions,    72 primitive gaussians,    38 cartesian basis functions
     8 alpha electrons        8 beta electrons
       nuclear repulsion energy        38.6931302499 Hartrees.
 NAtoms=    6 NActive=    6 NUniq=    4 SFac= 2.25D+00 NAtFMM=   60 NAOKFM=F Big=F
 Integral buffers will be    131072 words long.
 Raffenetti 2 integral format.
 Two-electron integral symmetry is turned on.
 One-electron integrals computed using PRISM.
 NBasis=    38 RedAO= T EigKep=  1.65D-02  NBF=    20     2     6    10
 NBsUse=    38 1.00D-06 EigRej= -1.00D+00 NBFU=    20     2     6    10
 Initial guess from the checkpoint file:  "gau.chk"
 B after Tr=     0.000000    0.000000    0.000000
         Rot=    1.000000    0.000000    0.000000    0.000000 Ang=   0.00 deg.
 Initial guess orbital symmetries:
       Occupied  (A1) (A1) (A1) (A1) (B2) (A1) (B2) (B1)
       Virtual   (A1) (A1) (A1) (A1) (A1) (A1) (A1) (A1) (A1) (A1)
                 (A1) (A1) (A1) (A1) (A1) (A2) (A2) (B1) (B1) (B1)
                 (B1) (B1) (B2) (B2) (B2) (B2) (B2) (B2) (B2) (B2)
 Keep R1 ints in memory in symmetry-blocked form, NReq=1436518.
 Requested convergence on RMS density matrix=1.00D-08 within 128 cycles.
 Requested convergence on MAX density matrix=1.00D-06.
 Requested convergence on             energy=1.00D-06.
 No special actions if energy rises.
 SCF Done:  E(RCAM-B3LYP) =  -94.9194360429     A.U. after    8 cycles
            NFock=  8  Conv=0.54D-08     -V/T= 2.0101
 Calling FoFJK, ICntrl=      2127 FMM=F ISym2X=1 I1Cent= 0 IOpClX= 0 NMat=1 NMatS=1 NMatT=0.
 ***** Axes restored to original set *****
 -------------------------------------------------------------------
 Center     Atomic                   Forces (Hartrees/Bohr)
 Number     Number              X              Y              Z
 -------------------------------------------------------------------
      1        6           0.000018669    0.000032414    0.000000000
      2        1          -0.000177675    0.000205112    0.000000000
      3        1           0.000266577   -0.000050756    0.000000000
      4        7          -0.000252781   -0.000438893    0.000000000
      5        1          -0.000278876    0.000328497    0.000000000
      6        1           0.000424086   -0.000076375    0.000000000
 -------------------------------------------------------------------
 Cartesian Forces:  Max     0.000438893 RMS     0.000207708

 GradGradGradGradGradGradGradGradGradGradGradGradGradGradGradGradGradGrad
 Berny optimization.
 Using GEDIIS/GDIIS optimizer.
 FormGI is forming the generalized inverse of G from B-inverse, IUseBI=4.
 Internal  Forces:  Max     0.000434401 RMS     0.000203717
 Search for a local minimum.
 Step number   3 out of a maximum of   25
 All quantities printed in internal units (Hartrees-Bohrs-Radians)
 Mixed Optimization -- En-DIIS/RFO-DIIS
 Update second derivatives using D2CorX and points    1    2    3
 DE= -5.77D-05 DEPred=-5.03D-05 R= 1.15D+00
 TightC=F SS=  1.41D+00  RLast= 2.64D-02 DXNew= 5.0454D-01 7.9166D-02
 Trust test= 1.15D+00 RLast= 2.64D-02 DXMaxT set to 3.00D-01
 The second derivative matrix:
                          R1        R2        R3        R4        R5
           R1           0.37915
           R2           0.00685   0.37915
           R3          -0.00897  -0.00897   0.68692
           R4           0.00798   0.00798  -0.00274   0.48509
           R5           0.00798   0.00798  -0.00274   0.00821   0.48509
           A1           0.00184   0.00184  -0.00445   0.00227   0.00227
           A2          -0.00092  -0.00092   0.00223  -0.00114  -0.00114
           A3          -0.00092  -0.00092   0.00223  -0.00114  -0.00114
           A4          -0.00087  -0.00087   0.01266  -0.00395  -0.00395
           A5          -0.00087  -0.00087   0.01266  -0.00395  -0.00395
           A6           0.00174   0.00174  -0.02532   0.00791   0.00791
           D1           0.00000   0.00000   0.00000   0.00000   0.00000
           D2           0.00000   0.00000   0.00000   0.00000   0.00000
           D3           0.00000   0.00000   0.00000   0.00000   0.00000
           D4           0.00000   0.00000   0.00000   0.00000   0.00000
                          A1        A2        A3        A4        A5
           A1           0.16051
           A2          -0.00026   0.16013
           A3          -0.00026   0.00013   0.16013
           A4           0.00037  -0.00018  -0.00018   0.15433
           A5           0.00037  -0.00018  -0.00018  -0.00567   0.15433
           A6          -0.00074   0.00037   0.00037   0.01133   0.01133
           D1           0.00000   0.00000   0.00000   0.00000   0.00000
           D2           0.00000   0.00000   0.00000   0.00000   0.00000
           D3           0.00000   0.00000   0.00000   0.00000   0.00000
           D4           0.00000   0.00000   0.00000   0.00000   0.00000
                          A6        D1        D2        D3        D4
           A6           0.13734
           D1           0.00000   0.03099
           D2           0.00000   0.00000   0.03099
           D3           0.00000   0.00000   0.00000   0.03099
           D4           0.00000   0.00000   0.00000   0.00000   0.03099
 ITU=  1  1  0
 Use linear search instead of GDIIS.
     Eigenvalues ---    0.03099   0.03099   0.03099   0.12373   0.16000
     Eigenvalues ---    0.16000   0.16070   0.37230   0.38322   0.47688
     Eigenvalues ---    0.49596   0.68937
 RFO step:  Lambda=-8.80258347D-07 EMin= 3.09924824D-02
 Quartic linear search produced a step of  0.15508.
 Iteration  1 RMS(Cart)=  0.00107451 RMS(Int)=  0.00000109
 Iteration  2 RMS(Cart)=  0.00000103 RMS(Int)=  0.00000000
 Iteration  3 RMS(Cart)=  0.00000000 RMS(Int)=  0.00000000
 ClnCor:  largest displacement from symmetrization is 4.34D-12 for atom     1.
 Variable       Old X    -DE/DX   Delta X   Delta X   Delta X     New X
                                 (Linear)    (Quad)   (Total)
    R1        2.05545  -0.00027  -0.00009  -0.00057  -0.00066   2.05479
    R2        2.05545  -0.00027  -0.00009  -0.00057  -0.00066   2.05479
    R3        2.40903  -0.00022  -0.00028  -0.00025  -0.00053   2.40850
    R4        1.93134  -0.00027   0.00031  -0.00075  -0.00044   1.93090
    R5        1.93134  -0.00027   0.00031  -0.00075  -0.00044   1.93090
    A1        2.10521  -0.00007  -0.00039  -0.00004  -0.00043   2.10478
    A2        2.08899   0.00003   0.00020   0.00002   0.00022   2.08920
    A3        2.08899   0.00003   0.00020   0.00002   0.00022   2.08920
    A4        2.12583   0.00022   0.00164   0.00009   0.00173   2.12757
    A5        2.12583   0.00022   0.00164   0.00009   0.00173   2.12757
    A6        2.03152  -0.00043  -0.00329  -0.00018  -0.00347   2.02805
    D1        0.00000   0.00000   0.00000   0.00000   0.00000   0.00000
    D2        3.14159   0.00000   0.00000   0.00000   0.00000   3.14159
    D3        3.14159   0.00000   0.00000   0.00000   0.00000   3.14159
    D4        0.00000   0.00000   0.00000   0.00000   0.00000   0.00000
         Item               Value     Threshold  Converged?
 Maximum Force            0.000434     0.000450     YES
 RMS     Force            0.000204     0.000300     YES
 Maximum Displacement     0.002602     0.001800     NO 
 RMS     Displacement     0.001075     0.001200     YES
 Predicted change in Energy=-1.507967D-06
 GradGradGradGradGradGradGradGradGradGradGradGradGradGradGradGradGradGrad

                          Input orientation:                          
 ---------------------------------------------------------------------
 Center     Atomic      Atomic             Coordinates (Angstroms)
 Number     Number       Type             X           Y           Z
 ---------------------------------------------------------------------
      1          6           0        0.258137    0.268649    0.000000
      2          1           0        0.807675   -0.669609    0.000000
      3          1           0       -0.829200    0.273152    0.000000
      4          7           0        0.894240    1.373087    0.000000
      5          1           0        1.915432    1.408049    0.000000
      6          1           0        0.412030    2.273936    0.000000
 ---------------------------------------------------------------------
                    Distance matrix (angstroms):
                    1          2          3          4          5
     1  C    0.000000
     2  H    1.087346   0.000000
     3  H    1.087346   1.888957   0.000000
     4  N    1.274523   2.044529   2.044529   0.000000
     5  H    2.011183   2.354525   2.970016   1.021790   0.000000
     6  H    2.011183   2.970016   2.354525   1.021790   1.734928
                    6
     6  H    0.000000
 Stoichiometry    CH4N(1+)
 Framework group  C2V[C2(CN),SGV(H4)]
 Deg. of freedom     5
 Full point group                 C2V     NOp   4
 Largest Abelian subgroup         C2V     NOp   4
 Largest concise Abelian subgroup C2      NOp   2
                         Standard orientation:                         
 ---------------------------------------------------------------------
 Center     Atomic      Atomic             Coordinates (Angstroms)
 Number     Number       Type             X           Y           Z
 ---------------------------------------------------------------------
      1          6           0        0.000000    0.000000   -0.674887
      2          1           0        0.000000    0.944478   -1.213665
      3          1           0        0.000000   -0.944478   -1.213665
      4          7           0        0.000000    0.000000    0.599636
      5          1           0        0.000000    0.867464    1.139600
      6          1           0        0.000000   -0.867464    1.139600
 ---------------------------------------------------------------------
 Rotational constants (GHZ):    152.4611735     31.4160770     26.0485294
 Standard basis: 6-31G(d) (6D, 7F)
 There are    20 symmetry adapted cartesian basis functions of A1  symmetry.
 There are     2 symmetry adapted cartesian basis functions of A2  symmetry.
 There are     6 symmetry adapted cartesian basis functions of B1  symmetry.
 There are    10 symmetry adapted cartesian basis functions of B2  symmetry.
 There are    20 symmetry adapted basis functions of A1  symmetry.
 There are     2 symmetry adapted basis functions of A2  symmetry.
 There are     6 symmetry adapted basis functions of B1  symmetry.
 There are    10 symmetry adapted basis functions of B2  symmetry.
    38 basis functions,    72 primitive gaussians,    38 cartesian basis functions
     8 alpha electrons        8 beta electrons
       nuclear repulsion energy        38.7007357038 Hartrees.
 NAtoms=    6 NActive=    6 NUniq=    4 SFac= 2.25D+00 NAtFMM=   60 NAOKFM=F Big=F
 Integral buffers will be    131072 words long.
 Raffenetti 2 integral format.
 Two-electron integral symmetry is turned on.
 One-electron integrals computed using PRISM.
 NBasis=    38 RedAO= T EigKep=  1.65D-02  NBF=    20     2     6    10
 NBsUse=    38 1.00D-06 EigRej= -1.00D+00 NBFU=    20     2     6    10
 Initial guess from the checkpoint file:  "gau.chk"
 B after Tr=     0.000000    0.000000    0.000000
         Rot=    1.000000    0.000000    0.000000    0.000000 Ang=   0.00 deg.
 Initial guess orbital symmetries:
       Occupied  (A1) (A1) (A1) (A1) (B2) (A1) (B2) (B1)
       Virtual   (A1) (A1) (A1) (A1) (A1) (A1) (A1) (A1) (A1) (A1)
                 (A1) (A1) (A1) (A1) (A1) (A2) (A2) (B1) (B1) (B1)
                 (B1) (B1) (B2) (B2) (B2) (B2) (B2) (B2) (B2) (B2)
 Keep R1 ints in memory in symmetry-blocked form, NReq=1436518.
 Requested convergence on RMS density matrix=1.00D-08 within 128 cycles.
 Requested convergence on MAX density matrix=1.00D-06.
 Requested convergence on             energy=1.00D-06.
 No special actions if energy rises.
 SCF Done:  E(RCAM-B3LYP) =  -94.9194375775     A.U. after    7 cycles
            NFock=  7  Conv=0.50D-08     -V/T= 2.0100
 Calling FoFJK, ICntrl=      2127 FMM=F ISym2X=1 I1Cent= 0 IOpClX= 0 NMat=1 NMatS=1 NMatT=0.
 ***** Axes restored to original set *****
 -------------------------------------------------------------------
 Center     Atomic                   Forces (Hartrees/Bohr)
 Number     Number              X              Y              Z
 -------------------------------------------------------------------
      1        6          -0.000029449   -0.000051131    0.000000000
      2        1          -0.000013316    0.000011383    0.000000000
      3        1           0.000016528   -0.000005806    0.000000000
      4        7           0.000043098    0.000074828    0.000000000
      5        1          -0.000039110    0.000003033    0.000000000
      6        1           0.000022250   -0.000032307    0.000000000
 -------------------------------------------------------------------
 Cartesian Forces:  Max     0.000074828 RMS     0.000028509

 GradGradGradGradGradGradGradGradGradGradGradGradGradGradGradGradGradGrad
 Berny optimization.
 Using GEDIIS/GDIIS optimizer.
 FormGI is forming the generalized inverse of G from B-inverse, IUseBI=4.
 Internal  Forces:  Max     0.000052570 RMS     0.000020802
 Search for a local minimum.
 Step number   4 out of a maximum of   25
 All quantities printed in internal units (Hartrees-Bohrs-Radians)
 Mixed Optimization -- En-DIIS/RFO-DIIS
 Swapping is turned off.
 Update second derivatives using D2CorX and points    1    2    3    4
 DE= -1.53D-06 DEPred=-1.51D-06 R= 1.02D+00
 TightC=F SS=  1.41D+00  RLast= 4.46D-03 DXNew= 5.0454D-01 1.3371D-02
 Trust test= 1.02D+00 RLast= 4.46D-03 DXMaxT set to 3.00D-01
 The second derivative matrix:
                          R1        R2        R3        R4        R5
           R1           0.37510
           R2           0.00280   0.37510
           R3          -0.00524  -0.00524   0.70069
           R4           0.00079   0.00079   0.00065   0.47447
           R5           0.00079   0.00079   0.00065  -0.00241   0.47447
           A1           0.00099   0.00099  -0.00454   0.00080   0.00080
           A2          -0.00049  -0.00049   0.00227  -0.00040  -0.00040
           A3          -0.00049  -0.00049   0.00227  -0.00040  -0.00040
           A4          -0.00027  -0.00027   0.00904  -0.00192  -0.00192
           A5          -0.00027  -0.00027   0.00904  -0.00192  -0.00192
           A6           0.00053   0.00053  -0.01809   0.00383   0.00383
           D1           0.00000   0.00000   0.00000   0.00000   0.00000
           D2           0.00000   0.00000   0.00000   0.00000   0.00000
           D3           0.00000   0.00000   0.00000   0.00000   0.00000
           D4           0.00000   0.00000   0.00000   0.00000   0.00000
                          A1        A2        A3        A4        A5
           A1           0.16030
           A2          -0.00015   0.16008
           A3          -0.00015   0.00008   0.16008
           A4           0.00085  -0.00043  -0.00043   0.15425
           A5           0.00085  -0.00043  -0.00043  -0.00575   0.15425
           A6          -0.00171   0.00085   0.00085   0.01149   0.01149
           D1           0.00000   0.00000   0.00000   0.00000   0.00000
           D2           0.00000   0.00000   0.00000   0.00000   0.00000
           D3           0.00000   0.00000   0.00000   0.00000   0.00000
           D4           0.00000   0.00000   0.00000   0.00000   0.00000
                          A6        D1        D2        D3        D4
           A6           0.13701
           D1           0.00000   0.03099
           D2           0.00000   0.00000   0.03099
           D3           0.00000   0.00000   0.00000   0.03099
           D4           0.00000   0.00000   0.00000   0.00000   0.03099
 ITU=  1  1  1  0
     Eigenvalues ---    0.03099   0.03099   0.03099   0.12432   0.16000
     Eigenvalues ---    0.16000   0.16060   0.37230   0.37772   0.47222
     Eigenvalues ---    0.47688   0.70177
 En-DIIS/RFO-DIIS IScMMF=        0 using points:     4    3
 RFO step:  Lambda= 0.00000000D+00.
 DidBck=F Rises=F RFO-DIIS coefs:    1.02125   -0.02125
 Iteration  1 RMS(Cart)=  0.00004496 RMS(Int)=  0.00000000
 Iteration  2 RMS(Cart)=  0.00000000 RMS(Int)=  0.00000000
 ClnCor:  largest displacement from symmetrization is 4.69D-12 for atom     1.
 Variable       Old X    -DE/DX   Delta X   Delta X   Delta X     New X
                                 (Linear)    (Quad)   (Total)
    R1        2.05479  -0.00002  -0.00001  -0.00003  -0.00004   2.05474
    R2        2.05479  -0.00002  -0.00001  -0.00003  -0.00004   2.05474
    R3        2.40850   0.00005  -0.00001   0.00008   0.00007   2.40857
    R4        1.93090  -0.00004  -0.00001  -0.00007  -0.00008   1.93082
    R5        1.93090  -0.00004  -0.00001  -0.00007  -0.00008   1.93082
    A1        2.10478  -0.00001  -0.00001  -0.00004  -0.00005   2.10473
    A2        2.08920   0.00000   0.00000   0.00002   0.00002   2.08923
    A3        2.08920   0.00000   0.00000   0.00002   0.00002   2.08923
    A4        2.12757   0.00000   0.00004  -0.00002   0.00001   2.12758
    A5        2.12757   0.00000   0.00004  -0.00002   0.00001   2.12758
    A6        2.02805  -0.00001  -0.00007   0.00004  -0.00003   2.02802
    D1        0.00000   0.00000   0.00000   0.00000   0.00000   0.00000
    D2        3.14159   0.00000   0.00000   0.00000   0.00000   3.14159
    D3        3.14159   0.00000   0.00000   0.00000   0.00000   3.14159
    D4        0.00000   0.00000   0.00000   0.00000   0.00000   0.00000
         Item               Value     Threshold  Converged?
 Maximum Force            0.000053     0.000450     YES
 RMS     Force            0.000021     0.000300     YES
 Maximum Displacement     0.000089     0.001800     YES
 RMS     Displacement     0.000045     0.001200     YES
 Predicted change in Energy=-6.212371D-09
 Optimization completed.
    -- Stationary point found.
                           ----------------------------
                           !   Optimized Parameters   !
                           ! (Angstroms and Degrees)  !
 --------------------------                            --------------------------
 ! Name  Definition              Value          Derivative Info.                !
 --------------------------------------------------------------------------------
 ! R1    R(1,2)                  1.0873         -DE/DX =    0.0                 !
 ! R2    R(1,3)                  1.0873         -DE/DX =    0.0                 !
 ! R3    R(1,4)                  1.2745         -DE/DX =    0.0001              !
 ! R4    R(4,5)                  1.0218         -DE/DX =    0.0                 !
 ! R5    R(4,6)                  1.0218         -DE/DX =    0.0                 !
 ! A1    A(2,1,3)              120.5948         -DE/DX =    0.0                 !
 ! A2    A(2,1,4)              119.7026         -DE/DX =    0.0                 !
 ! A3    A(3,1,4)              119.7026         -DE/DX =    0.0                 !
 ! A4    A(1,4,5)              121.9007         -DE/DX =    0.0                 !
 ! A5    A(1,4,6)              121.9007         -DE/DX =    0.0                 !
 ! A6    A(5,4,6)              116.1986         -DE/DX =    0.0                 !
 ! D1    D(2,1,4,5)              0.0            -DE/DX =    0.0                 !
 ! D2    D(2,1,4,6)            180.0            -DE/DX =    0.0                 !
 ! D3    D(3,1,4,5)            180.0            -DE/DX =    0.0                 !
 ! D4    D(3,1,4,6)              0.0            -DE/DX =    0.0                 !
 --------------------------------------------------------------------------------
 GradGradGradGradGradGradGradGradGradGradGradGradGradGradGradGradGradGrad

                          Input orientation:                          
 ---------------------------------------------------------------------
 Center     Atomic      Atomic             Coordinates (Angstroms)
 Number     Number       Type             X           Y           Z
 ---------------------------------------------------------------------
      1          6           0        0.258137    0.268649    0.000000
      2          1           0        0.807675   -0.669609    0.000000
      3          1           0       -0.829200    0.273152    0.000000
      4          7           0        0.894240    1.373087    0.000000
      5          1           0        1.915432    1.408049    0.000000
      6          1           0        0.412030    2.273936    0.000000
 ---------------------------------------------------------------------
                    Distance matrix (angstroms):
                    1          2          3          4          5
     1  C    0.000000
     2  H    1.087346   0.000000
     3  H    1.087346   1.888957   0.000000
     4  N    1.274523   2.044529   2.044529   0.000000
     5  H    2.011183   2.354525   2.970016   1.021790   0.000000
     6  H    2.011183   2.970016   2.354525   1.021790   1.734928
                    6
     6  H    0.000000
 Stoichiometry    CH4N(1+)
 Framework group  C2V[C2(CN),SGV(H4)]
 Deg. of freedom     5
 Full point group                 C2V     NOp   4
 Largest Abelian subgroup         C2V     NOp   4
 Largest concise Abelian subgroup C2      NOp   2
                         Standard orientation:                         
 ---------------------------------------------------------------------
 Center     Atomic      Atomic             Coordinates (Angstroms)
 Number     Number       Type             X           Y           Z
 ---------------------------------------------------------------------
      1          6           0        0.000000    0.000000   -0.674887
      2          1           0        0.000000    0.944478   -1.213665
      3          1           0        0.000000   -0.944478   -1.213665
      4          7           0        0.000000    0.000000    0.599636
      5          1           0        0.000000    0.867464    1.139600
      6          1           0        0.000000   -0.867464    1.139600
 ---------------------------------------------------------------------
 Rotational constants (GHZ):    152.4611735     31.4160770     26.0485294

 **********************************************************************

            Population analysis using the SCF density.

 **********************************************************************

 Orbital symmetries:
       Occupied  (A1) (A1) (A1) (A1) (B2) (A1) (B2) (B1)
       Virtual   (B1) (A1) (B2) (A1) (B2) (A1) (B1) (A1) (B2) (A1)
                 (B1) (A1) (B2) (B2) (A1) (A1) (A1) (B2) (B1) (A2)
                 (A2) (A1) (B2) (A1) (A1) (B1) (A1) (B2) (A1) (A1)
 The electronic state is 1-A1.
 Alpha  occ. eigenvalues --  -14.76130 -10.61968  -1.32829  -1.02618  -0.91868
 Alpha  occ. eigenvalues --   -0.85742  -0.74529  -0.71815
 Alpha virt. eigenvalues --   -0.25955  -0.11598  -0.08211  -0.04795   0.03861
 Alpha virt. eigenvalues --    0.09542   0.33319   0.34215   0.38026   0.44720
 Alpha virt. eigenvalues --    0.50624   0.52221   0.61889   0.68472   0.68997
 Alpha virt. eigenvalues --    0.73566   1.00407   1.15858   1.21432   1.25443
 Alpha virt. eigenvalues --    1.58487   1.65449   1.81000   1.95353   2.12791
 Alpha virt. eigenvalues --    2.18632   2.46278   2.51697   3.53616   3.87963
          Condensed to atoms (all electrons):
               1          2          3          4          5          6
     1  C    4.810422   0.374233   0.374233   0.487536  -0.025341  -0.025341
     2  H    0.374233   0.370472  -0.015880  -0.030221  -0.003385   0.002305
     3  H    0.374233  -0.015880   0.370472  -0.030221   0.002305  -0.003385
     4  N    0.487536  -0.030221  -0.030221   6.459366   0.312798   0.312798
     5  H   -0.025341  -0.003385   0.002305   0.312798   0.276559  -0.014360
     6  H   -0.025341   0.002305  -0.003385   0.312798  -0.014360   0.276559
 Mulliken charges:
               1
     1  C    0.004257
     2  H    0.302476
     3  H    0.302476
     4  N   -0.512056
     5  H    0.451424
     6  H    0.451424
 Sum of Mulliken charges =   1.00000
 Mulliken charges with hydrogens summed into heavy atoms:
               1
     1  C    0.609208
     4  N    0.390792
 Electronic spatial extent (au):  <R**2>=             68.1240
 Charge=              1.0000 electrons
 Dipole moment (field-independent basis, Debye):
    X=              0.0000    Y=              0.0000    Z=              0.4120  Tot=              0.4120
 Quadrupole moment (field-independent basis, Debye-Ang):
   XX=            -12.1915   YY=             -7.1272   ZZ=             -4.6708
   XY=              0.0000   XZ=              0.0000   YZ=              0.0000
 Traceless Quadrupole moment (field-independent basis, Debye-Ang):
   XX=             -4.1950   YY=              0.8693   ZZ=              3.3257
   XY=              0.0000   XZ=              0.0000   YZ=              0.0000
 Octapole moment (field-independent basis, Debye-Ang**2):
  XXX=              0.0000  YYY=              0.0000  ZZZ=              3.2524  XYY=              0.0000
  XXY=              0.0000  XXZ=              0.1866  XZZ=              0.0000  YZZ=              0.0000
  YYZ=              1.4752  XYZ=              0.0000
 Hexadecapole moment (field-independent basis, Debye-Ang**3):
 XXXX=            -10.3275 YYYY=            -14.0934 ZZZZ=            -39.3754 XXXY=              0.0000
 XXXZ=              0.0000 YYYX=              0.0000 YYYZ=              0.0000 ZZZX=              0.0000
 ZZZY=              0.0000 XXYY=             -5.0613 XXZZ=            -10.1504 YYZZ=             -4.1027
 XXYZ=              0.0000 YYXZ=              0.0000 ZZXY=              0.0000
 N-N= 3.870073570375D+01 E-N=-2.926295056007D+02  KE= 9.397557642664D+01
 Symmetry A1   KE= 8.591250455925D+01
 Symmetry A2   KE= 1.785938958257D-34
 Symmetry B1   KE= 2.987313943327D+00
 Symmetry B2   KE= 5.075757924060D+00
 1\1\GINC-EAM\FOpt\RCAM-B3LYP\6-31G(d)\C1H4N1(1+)\DULIKAI\02-Apr-2015\0
 \\# opt cam-b3lyp/6-31g(d) geom=connectivity\\Title Card Required\\1,1
 \C,0.2581370781,0.2686494371,0.\H,0.8076752442,-0.6696092753,0.\H,-0.8
 291997306,0.2731518784,0.\N,0.8942396672,1.373086553,0.\H,1.9154316844
 ,1.4080488191,0.\H,0.4120300035,2.2739357836,0.\\Version=EM64L-G09RevD
 .01\State=1-A1\HF=-94.9194376\RMSD=5.021e-09\RMSF=2.851e-05\Dipole=0.0
 808997,0.1404627,0.\Quadrupole=1.1012133,2.0176795,-3.1188929,0.789849
 8,0.,0.\PG=C02V [C2(C1N1),SGV(H4)]\\@


 KNOWLEDGE IS CHIMERA - FOR BEYOND IT LIES OTHER KNOWLEDGE,
 AND THE INCOMPLETENESS OF WHAT IS KNOWN RENDERS THE KNOWING FALSE.
     -- THE THOMAS COVENANT CHRONICLES
 Job cpu time:       0 days  0 hours  0 minutes  6.4 seconds.
 File lengths (MBytes):  RWF=      5 Int=      0 D2E=      0 Chk=      1 Scr=      1
 Normal termination of Gaussian 09 at Thu Apr  2 09:14:22 2015.
