 Entering Gaussian System, Link 0=g09
 Input=mix.gjf
 Output=mix.log
 Initial command:
 /opt/g09_D01_em64t/g09/l1.exe "/tmp/Gau-19894.inp" -scrdir="/tmp/"
 Entering Link 1 = /opt/g09_D01_em64t/g09/l1.exe PID=     19895.
  
 Copyright (c) 1988,1990,1992,1993,1995,1998,2003,2009,2013,
            Gaussian, Inc.  All Rights Reserved.
  
 This is part of the Gaussian(R) 09 program.  It is based on
 the Gaussian(R) 03 system (copyright 2003, Gaussian, Inc.),
 the Gaussian(R) 98 system (copyright 1998, Gaussian, Inc.),
 the Gaussian(R) 94 system (copyright 1995, Gaussian, Inc.),
 the Gaussian 92(TM) system (copyright 1992, Gaussian, Inc.),
 the Gaussian 90(TM) system (copyright 1990, Gaussian, Inc.),
 the Gaussian 88(TM) system (copyright 1988, Gaussian, Inc.),
 the Gaussian 86(TM) system (copyright 1986, Carnegie Mellon
 University), and the Gaussian 82(TM) system (copyright 1983,
 Carnegie Mellon University). Gaussian is a federally registered
 trademark of Gaussian, Inc.
  
 This software contains proprietary and confidential information,
 including trade secrets, belonging to Gaussian, Inc.
  
 This software is provided under written license and may be
 used, copied, transmitted, or stored only in accord with that
 written license.
  
 The following legend is applicable only to US Government
 contracts under FAR:
  
                    RESTRICTED RIGHTS LEGEND
  
 Use, reproduction and disclosure by the US Government is
 subject to restrictions as set forth in subparagraphs (a)
 and (c) of the Commercial Computer Software - Restricted
 Rights clause in FAR 52.227-19.
  
 Gaussian, Inc.
 340 Quinnipiac St., Bldg. 40, Wallingford CT 06492
  
  
 ---------------------------------------------------------------
 Warning -- This program may not be used in any manner that
 competes with the business of Gaussian, Inc. or will provide
 assistance to any competitor of Gaussian, Inc.  The licensee
 of this program is prohibited from giving any competitor of
 Gaussian, Inc. access to this program.  By using this program,
 the user acknowledges that Gaussian, Inc. is engaged in the
 business of creating and licensing software in the field of
 computational chemistry and represents and warrants to the
 licensee that it is not a competitor of Gaussian, Inc. and that
 it will not use this program in any manner prohibited above.
 ---------------------------------------------------------------
  

 Cite this work as:
 Gaussian 09, Revision D.01,
 M. J. Frisch, G. W. Trucks, H. B. Schlegel, G. E. Scuseria, 
 M. A. Robb, J. R. Cheeseman, G. Scalmani, V. Barone, B. Mennucci, 
 G. A. Petersson, H. Nakatsuji, M. Caricato, X. Li, H. P. Hratchian, 
 A. F. Izmaylov, J. Bloino, G. Zheng, J. L. Sonnenberg, M. Hada, 
 M. Ehara, K. Toyota, R. Fukuda, J. Hasegawa, M. Ishida, T. Nakajima, 
 Y. Honda, O. Kitao, H. Nakai, T. Vreven, J. A. Montgomery, Jr., 
 J. E. Peralta, F. Ogliaro, M. Bearpark, J. J. Heyd, E. Brothers, 
 K. N. Kudin, V. N. Staroverov, T. Keith, R. Kobayashi, J. Normand, 
 K. Raghavachari, A. Rendell, J. C. Burant, S. S. Iyengar, J. Tomasi, 
 M. Cossi, N. Rega, J. M. Millam, M. Klene, J. E. Knox, J. B. Cross, 
 V. Bakken, C. Adamo, J. Jaramillo, R. Gomperts, R. E. Stratmann, 
 O. Yazyev, A. J. Austin, R. Cammi, C. Pomelli, J. W. Ochterski, 
 R. L. Martin, K. Morokuma, V. G. Zakrzewski, G. A. Voth, 
 P. Salvador, J. J. Dannenberg, S. Dapprich, A. D. Daniels, 
 O. Farkas, J. B. Foresman, J. V. Ortiz, J. Cioslowski, 
 and D. J. Fox, Gaussian, Inc., Wallingford CT, 2013.
 
 ******************************************
 Gaussian 09:  EM64L-G09RevD.01 24-Apr-2013
                 2-Apr-2015 
 ******************************************
 %chk=admp.chk
 %nproc=1
 Will use up to    1 processors via shared memory.
 ----------------------------------------------------------------------
 # oniom(cam-b3lyp/6-31g(d):amber)=embed geom=connectivity ADMP(MaxPoin
 ts=10000,fullscf,StepSize=5000)
 ----------------------------------------------------------------------
 1/8=5000,14=-1,29=20000,38=1,42=10000,52=2012,56=2,57=2,61=2,64=3,74=500,75=1/1,21;
 2/12=2,17=6,18=5,29=2,40=1/2;
 1/8=5000,14=-1,38=1,42=10000,52=2012,53=3172,61=2,64=3,74=500,75=1/20;
 3/5=30,11=9,16=1,25=1,30=1,41=10300000,43=2,65=-1,71=1,89=400,90=600/1;
 4/20=11,22=1,24=3/2;
 7/7=1,33=-1,44=-1/16;
 1/8=5000,14=-1,26=1,42=10000,52=2012,53=2032,61=2,74=500,75=1/20;
 3/5=1,6=6,7=1,11=2,16=1,25=1,30=1,65=-1,71=1,74=-40,89=400,90=600/1,2,3;
 4//1;
 5/5=2,14=200,38=5/2;
 6/7=2,8=2,9=2,10=2,15=8,20=41,22=-1,28=1/1,2;
 7/7=1,33=-1/1,2,3,16;
 1/8=5000,14=-1,42=10000,52=2012,53=1022,61=2,64=3,74=500,75=1/20;
 3/5=30,11=9,16=1,25=1,30=1,41=10300000,43=2,65=-1,71=1,89=400,90=600/1;
 4/20=11,22=1,24=3/2;
 7/7=1,33=-1,44=-1/16;
 1/8=5000,14=-1,42=10000,52=2012,53=3015,61=2,64=3,74=500,75=1/20;
 7/7=1,9=1,44=-1/16;
 1/8=5000,14=-1,42=10000,52=2012,61=2,64=3,74=500,75=1/21(2);
 2/29=1/2;
 99/12=1/99;
 2/29=1/2;
 1/8=5000,14=-1,42=10000,52=2012,53=3173,61=2,64=3,74=500,75=1/20;
 3/5=30,11=9,16=1,25=1,30=1,41=10300000,43=2,65=-1,71=1,89=400,90=600/1;
 4/16=2,20=11,22=1,24=3/2;
 7/7=1,33=-1,44=-1/16;
 1/8=5000,14=-1,26=1,42=10000,52=2012,53=2033,61=2,74=500,75=1/20;
 3/5=1,6=6,7=1,11=2,16=1,25=1,30=1,65=-1,71=1,74=-40,89=400,90=600/1,2,3;
 4/5=5,16=3,69=1/1;
 5/5=2,14=200/2;
 7/7=1,33=-1/1,2,3,16;
 1/8=5000,14=-1,42=10000,52=2012,53=1023,61=2,64=3,74=500,75=1/20;
 3/5=30,11=9,16=1,25=1,30=1,41=10300000,43=2,65=-1,71=1,89=400,90=600/1;
 4/16=2,20=11,22=1,24=3/2;
 7/7=1,33=-1,44=-1/16;
 1/8=5000,14=-1,42=10000,52=2012,53=3015,61=2,64=3,74=500,75=1/20;
 7/7=1,9=1,44=-1/16;
 1/8=5000,14=-1,42=10000,52=2012,61=2,64=3,74=500,75=1/21(-16);
 2/29=1/2;
 99/12=1/99;
 ------------------
 Built with Packmol
 ------------------
 Symbolic Z-matrix:
 Charge =  0 Multiplicity = 2 for low   level calculation on real  system.
 Charge =  1 Multiplicity = 1 for high  level calculation on model system.
 Charge =  1 Multiplicity = 1 for low   level calculation on model system.
 C-C_2(PDBName=C,ResName=2,ResNum=1) 0     0.        0.       -0.638    H 
 H-H_(PDBName=H,ResName=2,ResNum=1) 0     0.        0.944    -1.177    H 
 H-H_(PDBName=H,ResName=2,ResNum=1) 0     0.       -0.944    -1.177    H 
 N-N_2(PDBName=N,ResName=2,ResNum=1) 0     0.        0.        0.637    H 
 H-H_(PDBName=H,ResName=2,ResNum=1) 0     0.        0.867     1.177    H 
 H-H_(PDBName=H,ResName=2,ResNum=1) 0     0.       -0.867     1.177    H 
 O-O_3--0.834000(PDBName=O,ResName=2,ResNum=1_A) 0    -24.667   -4.454     10.245   L 
 H-H_-0.417000(PDBName=H,ResName=2,ResNum=1_A) 0    -24.659   -3.572     9.866    L 
 H-H_-0.417000(PDBName=H,ResName=2,ResNum=1_A) 0    -23.801   -4.655     10.608   L 
 O-O_3--0.834000(PDBName=O,ResName=2,ResNum=2_A) 0     7.297     25.671    15.464   L 
 H-H_-0.417000(PDBName=H,ResName=2,ResNum=2_A) 0     7.309     26.428    16.054   L 
 H-H_-0.417000(PDBName=H,ResName=2,ResNum=2_A) 0     6.57      25.76     14.843   L 
 O-O_3--0.834000(PDBName=O,ResName=2,ResNum=3_A) 0     18.203    0.092    -13.913   L 
 H-H_-0.417000(PDBName=H,ResName=2,ResNum=3_A) 0     18.694   -0.709    -14.111   L 
 H-H_-0.417000(PDBName=H,ResName=2,ResNum=3_A) 0     17.283   -0.026    -14.163   L 
 O-O_3--0.834000(PDBName=O,ResName=2,ResNum=4_A) 0     33.911   -4.908    -7.118    L 
 H-H_-0.417000(PDBName=H,ResName=2,ResNum=4_A) 0     33.106   -5.393    -6.927    L 
 H-H_-0.417000(PDBName=H,ResName=2,ResNum=4_A) 0     33.802   -4.412    -7.933    L 
 O-O_3--0.834000(PDBName=O,ResName=2,ResNum=5_A) 0     23.092    5.414    -20.404   L 
 H-H_-0.417000(PDBName=H,ResName=2,ResNum=5_A) 0     24.003    5.344    -20.7     L 
 H-H_-0.417000(PDBName=H,ResName=2,ResNum=5_A) 0     22.792    4.56     -20.084   L 
 O-O_3--0.834000(PDBName=O,ResName=2,ResNum=6_A) 0     1.529     4.366    -14.744   L 
 H-H_-0.417000(PDBName=H,ResName=2,ResNum=6_A) 0     1.412     3.462    -15.048   L 
 H-H_-0.417000(PDBName=H,ResName=2,ResNum=6_A) 0     2.459     4.6      -14.782   L 
 O-O_3--0.834000(PDBName=O,ResName=2,ResNum=7_A) 0    -4.479     20.658   -15.024   L 
 H-H_-0.417000(PDBName=H,ResName=2,ResNum=7_A) 0    -4.022     19.814   -15.025   L 
 H-H_-0.417000(PDBName=H,ResName=2,ResNum=7_A) 0    -5.428     20.509   -15.039   L 
 O-O_3--0.834000(PDBName=O,ResName=2,ResNum=8_A) 0     30.52     16.405   -2.208    L 
 H-H_-0.417000(PDBName=H,ResName=2,ResNum=8_A) 0     30.308    17.324   -2.388    L 
 H-H_-0.417000(PDBName=H,ResName=2,ResNum=8_A) 0     30.926    16.333   -1.34     L 
 O-O_3--0.834000(PDBName=O,ResName=2,ResNum=9_A) 0     18.495   -6.082     6.232    L 
 H-H_-0.417000(PDBName=H,ResName=2,ResNum=9_A) 0     17.542   -5.972     6.252    L 
 H-H_-0.417000(PDBName=H,ResName=2,ResNum=9_A) 0     18.752   -6.517     5.416    L 
 O-O_3--0.834000(PDBName=O,ResName=2,ResNum=10_A) 0    -1.728    -3.65     -6.483    L 
 H-H_-0.417000(PDBName=H,ResName=2,ResNum=10_A) 0    -2.225    -4.046    -7.203    L 
 H-H_-0.417000(PDBName=H,ResName=2,ResNum=10_A) 0    -1.147    -4.309    -6.095    L 
 O-O_3--0.834000(PDBName=O,ResName=2,ResNum=11_A) 0     13.943    13.683   -10.268   L 
 H-H_-0.417000(PDBName=H,ResName=2,ResNum=11_A) 0     14.001    12.772   -10.567   L 
 H-H_-0.417000(PDBName=H,ResName=2,ResNum=11_A) 0     14.826    14.037   -10.143   L 
 O-O_3--0.834000(PDBName=O,ResName=2,ResNum=12_A) 0    -15.741    15.193   -24.252   L 
 H-H_-0.417000(PDBName=H,ResName=2,ResNum=12_A) 0    -15.384    15.322   -25.134   L 
 H-H_-0.417000(PDBName=H,ResName=2,ResNum=12_A) 0    -15.267    14.482   -23.814   L 
 O-O_3--0.834000(PDBName=O,ResName=2,ResNum=13_A) 0    -3.559     19.639   -2.187    L 
 H-H_-0.417000(PDBName=H,ResName=2,ResNum=13_A) 0    -4.033     20.298   -1.676    L 
 H-H_-0.417000(PDBName=H,ResName=2,ResNum=13_A) 0    -2.706     19.469   -1.78     L 
 O-O_3--0.834000(PDBName=O,ResName=2,ResNum=14_A) 0     17.993   -7.772     12.541   L 
 H-H_-0.417000(PDBName=H,ResName=2,ResNum=14_A) 0     17.517   -7.22      13.167   L 
 H-H_-0.417000(PDBName=H,ResName=2,ResNum=14_A) 0     17.698   -8.681     12.627   L 
 O-O_3--0.834000(PDBName=O,ResName=2,ResNum=15_A) 0    -14.571    11.672    25.333   L 
 H-H_-0.417000(PDBName=H,ResName=2,ResNum=15_A) 0    -14.845    12.591    25.381   L 
 H-H_-0.417000(PDBName=H,ResName=2,ResNum=15_A) 0    -15.303    11.105    25.587   L 
 O-O_3--0.834000(PDBName=O,ResName=2,ResNum=16_A) 0     6.508     22.735   -18.702   L 
 H-H_-0.417000(PDBName=H,ResName=2,ResNum=16_A) 0     7.06      23.314   -18.171   L 
 H-H_-0.417000(PDBName=H,ResName=2,ResNum=16_A) 0     5.584     22.89    -18.491   L 
 O-O_3--0.834000(PDBName=O,ResName=2,ResNum=17_A) 0    -4.304     7.918    -24.499   L 
 H-H_-0.417000(PDBName=H,ResName=2,ResNum=17_A) 0    -4.615     7.931    -25.407   L 
 H-H_-0.417000(PDBName=H,ResName=2,ResNum=17_A) 0    -3.875     7.078    -24.318   L 
 O-O_3--0.834000(PDBName=O,ResName=2,ResNum=18_A) 0    -11.748   -3.509     6.361    L 
 H-H_-0.417000(PDBName=H,ResName=2,ResNum=18_A) 0    -12.205   -4.336     6.532    L 
 H-H_-0.417000(PDBName=H,ResName=2,ResNum=18_A) 0    -12.232   -3.006     5.701    L 
 O-O_3--0.834000(PDBName=O,ResName=2,ResNum=19_A) 0     6.587     4.246     23.83    L 
 H-H_-0.417000(PDBName=H,ResName=2,ResNum=19_A) 0     5.674     4.351     23.552   L 
 H-H_-0.417000(PDBName=H,ResName=2,ResNum=19_A) 0     7.041     5.089     23.766   L 
 O-O_3--0.834000(PDBName=O,ResName=2,ResNum=20_A) 0     12.975   -8.924    -15.202   L 
 H-H_-0.417000(PDBName=H,ResName=2,ResNum=20_A) 0     13.588   -9.645    -15.038   L 
 H-H_-0.417000(PDBName=H,ResName=2,ResNum=20_A) 0     13.293   -8.128    -14.77    L 
 O-O_3--0.834000(PDBName=O,ResName=2,ResNum=21_A) 0     28.949    11.777    4.086    L 
 H-H_-0.417000(PDBName=H,ResName=2,ResNum=21_A) 0     28.492    11.797    4.93     L 
 H-H_-0.417000(PDBName=H,ResName=2,ResNum=21_A) 0     29.382    10.927    3.975    L 
 O-O_3--0.834000(PDBName=O,ResName=2,ResNum=22_A) 0     1.408    -13.32    -19.983   L 
 H-H_-0.417000(PDBName=H,ResName=2,ResNum=22_A) 0     1.21     -13.015   -19.095   L 
 H-H_-0.417000(PDBName=H,ResName=2,ResNum=22_A) 0     2.328    -13.591   -20.032   L 
 O-O_3--0.834000(PDBName=O,ResName=2,ResNum=23_A) 0     22.067   -14.243    13.583   L 
 H-H_-0.417000(PDBName=H,ResName=2,ResNum=23_A) 0     22.959   -14.383    13.259   L 
 H-H_-0.417000(PDBName=H,ResName=2,ResNum=23_A) 0     21.899   -13.301    13.664   L 
 O-O_3--0.834000(PDBName=O,ResName=2,ResNum=24_A) 0     9.316    -21.264    9.17     L 
 H-H_-0.417000(PDBName=H,ResName=2,ResNum=24_A) 0     9.602    -20.352    9.267    L 
 H-H_-0.417000(PDBName=H,ResName=2,ResNum=24_A) 0     9.686    -21.632    8.364    L 
 O-O_3--0.834000(PDBName=O,ResName=2,ResNum=25_A) 0     15.523    1.35      0.556    L 
 H-H_-0.417000(PDBName=H,ResName=2,ResNum=25_A) 0     15.839    0.529     0.941    L 
 H-H_-0.417000(PDBName=H,ResName=2,ResNum=25_A) 0     15.668    2.071     1.174    L 
 O-O_3--0.834000(PDBName=O,ResName=2,ResNum=26_A) 0     27.077   -7.346    -9.399    L 
 H-H_-0.417000(PDBName=H,ResName=2,ResNum=26_A) 0     26.605   -8.182    -9.361    L 
 H-H_-0.417000(PDBName=H,ResName=2,ResNum=26_A) 0     27.929   -7.478    -9.82     L 
 O-O_3--0.834000(PDBName=O,ResName=2,ResNum=27_A) 0     0.48      10.422    30.726   L 
 H-H_-0.417000(PDBName=H,ResName=2,ResNum=27_A) 0     1.11      10.983    30.268   L 
 H-H_-0.417000(PDBName=H,ResName=2,ResNum=27_A) 0     0.188     9.721     30.137   L 
 O-O_3--0.834000(PDBName=O,ResName=2,ResNum=28_A) 0     13.573   -2.894    -22.306   L 
 H-H_-0.417000(PDBName=H,ResName=2,ResNum=28_A) 0     13.733   -2.412    -21.491   L 
 H-H_-0.417000(PDBName=H,ResName=2,ResNum=28_A) 0     12.825   -2.507    -22.767   L 
 O-O_3--0.834000(PDBName=O,ResName=2,ResNum=29_A) 0    -11.948   -17.885   -26.119   L 
 H-H_-0.417000(PDBName=H,ResName=2,ResNum=29_A) 0    -12.318   -17.077   -25.757   L 
 H-H_-0.417000(PDBName=H,ResName=2,ResNum=29_A) 0    -12.196   -17.966   -27.043   L 
 O-O_3--0.834000(PDBName=O,ResName=2,ResNum=30_A) 0    -7.033     28.616    8.196    L 
 H-H_-0.417000(PDBName=H,ResName=2,ResNum=30_A) 0    -6.247     28.829    7.686    L 
 H-H_-0.417000(PDBName=H,ResName=2,ResNum=30_A) 0    -6.931     27.749    8.596    L 
 O-O_3--0.834000(PDBName=O,ResName=2,ResNum=31_A) 0     27.661    20.343    0.775    L 
 H-H_-0.417000(PDBName=H,ResName=2,ResNum=31_A) 0     27.769    19.414    0.991    L 
 H-H_-0.417000(PDBName=H,ResName=2,ResNum=31_A) 0     26.744    20.598    0.899    L 
 O-O_3--0.834000(PDBName=O,ResName=2,ResNum=32_A) 0    -21.192    13.347   -8.414    L 
 H-H_-0.417000(PDBName=H,ResName=2,ResNum=32_A) 0    -21.211    12.502   -7.958    L 
 H-H_-0.417000(PDBName=H,ResName=2,ResNum=32_A) 0    -21.671    13.275   -9.243    L 
 O-O_3--0.834000(PDBName=O,ResName=2,ResNum=33_A) 0    -22.592    13.11     21.579   L 
 H-H_-0.417000(PDBName=H,ResName=2,ResNum=33_A) 0    -22.704    13.936    21.103   L 
 H-H_-0.417000(PDBName=H,ResName=2,ResNum=33_A) 0    -21.74     13.108    22.022   L 
 O-O_3--0.834000(PDBName=O,ResName=2,ResNum=34_A) 0    -6.491    -26.793   -4.777    L 
 H-H_-0.417000(PDBName=H,ResName=2,ResNum=34_A) 0    -7.174    -26.967   -5.429    L 
 H-H_-0.417000(PDBName=H,ResName=2,ResNum=34_A) 0    -6.223    -25.873   -4.831    L 
 O-O_3--0.834000(PDBName=O,ResName=2,ResNum=35_A) 0     18.183    14.006    12.4     L 
 H-H_-0.417000(PDBName=H,ResName=2,ResNum=35_A) 0     17.919    13.249    11.872   L 
 H-H_-0.417000(PDBName=H,ResName=2,ResNum=35_A) 0     18.896    13.753    12.99    L 
 O-O_3--0.834000(PDBName=O,ResName=2,ResNum=36_A) 0     2.998     14.854    0.909    L 
 H-H_-0.417000(PDBName=H,ResName=2,ResNum=36_A) 0     2.507     14.183    0.429    L 
 H-H_-0.417000(PDBName=H,ResName=2,ResNum=36_A) 0     3.826     14.483    1.222    L 
 O-O_3--0.834000(PDBName=O,ResName=2,ResNum=37_A) 0    -11.103    26.698   -2.971    L 
 H-H_-0.417000(PDBName=H,ResName=2,ResNum=37_A) 0    -11.013    25.88    -2.476    L 
 H-H_-0.417000(PDBName=H,ResName=2,ResNum=37_A) 0    -12.023    26.971   -2.975    L 
 O-O_3--0.834000(PDBName=O,ResName=2,ResNum=38_A) 0    -7.261    -18.927    24.097   L 
 H-H_-0.417000(PDBName=H,ResName=2,ResNum=38_A) 0    -7.77     -18.17     23.798   L 
 H-H_-0.417000(PDBName=H,ResName=2,ResNum=38_A) 0    -7.757    -19.733    23.933   L 
 O-O_3--0.834000(PDBName=O,ResName=2,ResNum=39_A) 0    -6.701    -9.433    -14.253   L 
 H-H_-0.417000(PDBName=H,ResName=2,ResNum=39_A) 0    -7.564    -9.177    -14.587   L 
 H-H_-0.417000(PDBName=H,ResName=2,ResNum=39_A) 0    -6.484    -8.903    -13.483   L 
 O-O_3--0.834000(PDBName=O,ResName=2,ResNum=40_A) 0    -7.752    -10.772    32.218   L 
 H-H_-0.417000(PDBName=H,ResName=2,ResNum=40_A) 0    -8.699    -10.613    32.198   L 
 H-H_-0.417000(PDBName=H,ResName=2,ResNum=40_A) 0    -7.312    -10.034    32.646   L 
 O-O_3--0.834000(PDBName=O,ResName=2,ResNum=41_A) 0     12.871   -17.356   -12.708   L 
 H-H_-0.417000(PDBName=H,ResName=2,ResNum=41_A) 0     12.19    -16.756   -13.02    L 
 H-H_-0.417000(PDBName=H,ResName=2,ResNum=41_A) 0     13.602   -17.363   -13.33    L 
 O-O_3--0.834000(PDBName=O,ResName=2,ResNum=42_A) 0    -8.809    -1.605    -28.705   L 
 H-H_-0.417000(PDBName=H,ResName=2,ResNum=42_A) 0    -9.522    -2.198    -28.456   L 
 H-H_-0.417000(PDBName=H,ResName=2,ResNum=42_A) 0    -8.981    -0.73     -28.35    L 
 O-O_3--0.834000(PDBName=O,ResName=2,ResNum=43_A) 0     2.996     7.009    -0.47     L 
 H-H_-0.417000(PDBName=H,ResName=2,ResNum=43_A) 0     3.605     7.723    -0.269    L 
 H-H_-0.417000(PDBName=H,ResName=2,ResNum=43_A) 0     2.142     7.375    -0.716    L 
 O-O_3--0.834000(PDBName=O,ResName=2,ResNum=44_A) 0     1.464    -22.642   -25.907   L 
 H-H_-0.417000(PDBName=H,ResName=2,ResNum=44_A) 0     1.802    -23.538   -25.84    L 
 H-H_-0.417000(PDBName=H,ResName=2,ResNum=44_A) 0     1.208    -22.462   -26.814   L 
 O-O_3--0.834000(PDBName=O,ResName=2,ResNum=45_A) 0    -22.499   -9.309     1.683    L 
 H-H_-0.417000(PDBName=H,ResName=2,ResNum=45_A) 0    -22.386   -10.258    1.767    L 
 H-H_-0.417000(PDBName=H,ResName=2,ResNum=45_A) 0    -22.998   -8.978     2.434    L 
 O-O_3--0.834000(PDBName=O,ResName=2,ResNum=46_A) 0    -23.594   -2.157    -8.797    L 
 H-H_-0.417000(PDBName=H,ResName=2,ResNum=46_A) 0    -24.158   -2.642    -9.404    L 
 H-H_-0.417000(PDBName=H,ResName=2,ResNum=46_A) 0    -24.132   -1.76     -8.108    L 
 O-O_3--0.834000(PDBName=O,ResName=2,ResNum=47_A) 0    -2.723    -20.719    16.779   L 
 H-H_-0.417000(PDBName=H,ResName=2,ResNum=47_A) 0    -3.519    -20.559    17.291   L 
 H-H_-0.417000(PDBName=H,ResName=2,ResNum=47_A) 0    -2.649    -21.656    16.586   L 
 O-O_3--0.834000(PDBName=O,ResName=2,ResNum=48_A) 0     27.993   -4.056    -10.612   L 
 H-H_-0.417000(PDBName=H,ResName=2,ResNum=48_A) 0     27.555   -4.725    -10.081   L 
 H-H_-0.417000(PDBName=H,ResName=2,ResNum=48_A) 0     27.84    -4.234    -11.543   L 
 O-O_3--0.834000(PDBName=O,ResName=2,ResNum=49_A) 0    -30.257   -13.851   -7.273    L 
 H-H_-0.417000(PDBName=H,ResName=2,ResNum=49_A) 0    -29.728   -13.834   -8.074    L 
 H-H_-0.417000(PDBName=H,ResName=2,ResNum=49_A) 0    -31.02    -14.419   -7.405    L 
 O-O_3--0.834000(PDBName=O,ResName=2,ResNum=50_A) 0     22.843    0.74      1.181    L 
 H-H_-0.417000(PDBName=H,ResName=2,ResNum=50_A) 0     21.954    0.918     1.497    L 
 H-H_-0.417000(PDBName=H,ResName=2,ResNum=50_A) 0     23.442    0.675     1.929    L 
 O-O_3--0.834000(PDBName=O,ResName=2,ResNum=51_A) 0    -8.608     4.909     32.499   L 
 H-H_-0.417000(PDBName=H,ResName=2,ResNum=51_A) 0    -8.627     3.973     32.285   L 
 H-H_-0.417000(PDBName=H,ResName=2,ResNum=51_A) 0    -9.355     5.125     33.062   L 
 O-O_3--0.834000(PDBName=O,ResName=2,ResNum=52_A) 0    -2.666    -22.867    0.851    L 
 H-H_-0.417000(PDBName=H,ResName=2,ResNum=52_A) 0    -3.11     -23.719    0.857    L 
 H-H_-0.417000(PDBName=H,ResName=2,ResNum=52_A) 0    -3.318    -22.165    0.917    L 
 O-O_3--0.834000(PDBName=O,ResName=2,ResNum=53_A) 0     13.254    22.512    8.663    L 
 H-H_-0.417000(PDBName=H,ResName=2,ResNum=53_A) 0     12.605    21.814    8.772    L 
 H-H_-0.417000(PDBName=H,ResName=2,ResNum=53_A) 0     12.904    23.334    9.014    L 
 O-O_3--0.834000(PDBName=O,ResName=2,ResNum=54_A) 0     4.241    -8.729     16.375   L 
 H-H_-0.417000(PDBName=H,ResName=2,ResNum=54_A) 0     4.079    -7.935     15.86    L 
 H-H_-0.417000(PDBName=H,ResName=2,ResNum=54_A) 0     3.411    -9.189     16.523   L 
 O-O_3--0.834000(PDBName=O,ResName=2,ResNum=55_A) 0     5.501     10.494    19.717   L 
 H-H_-0.417000(PDBName=H,ResName=2,ResNum=55_A) 0     5.789     11.41     19.738   L 
 H-H_-0.417000(PDBName=H,ResName=2,ResNum=55_A) 0     6.253     9.918     19.875   L 
 O-O_3--0.834000(PDBName=O,ResName=2,ResNum=56_A) 0    -24.485   -5.225    -7.703    L 
 H-H_-0.417000(PDBName=H,ResName=2,ResNum=56_A) 0    -25.101   -4.505    -7.545    L 
 H-H_-0.417000(PDBName=H,ResName=2,ResNum=56_A) 0    -24.362   -5.34     -8.648    L 
 O-O_3--0.834000(PDBName=O,ResName=2,ResNum=57_A) 0     19.765   -26.446    0.572    L 
 H-H_-0.417000(PDBName=H,ResName=2,ResNum=57_A) 0     19.374   -26.433    1.448    L 
 H-H_-0.417000(PDBName=H,ResName=2,ResNum=57_A) 0     20.722   -26.441    0.647    L 
 O-O_3--0.834000(PDBName=O,ResName=2,ResNum=58_A) 0     10.409    19.506    20.865   L 
 H-H_-0.417000(PDBName=H,ResName=2,ResNum=58_A) 0     10.543    19.656    19.927   L 
 H-H_-0.417000(PDBName=H,ResName=2,ResNum=58_A) 0     11.078    19.979    21.365   L 
 O-O_3--0.834000(PDBName=O,ResName=2,ResNum=59_A) 0    -11.717    24.57     3.206    L 
 H-H_-0.417000(PDBName=H,ResName=2,ResNum=59_A) 0    -12.101    23.82     2.746    L 
 H-H_-0.417000(PDBName=H,ResName=2,ResNum=59_A) 0    -11.731    25.339    2.631    L 
 O-O_3--0.834000(PDBName=O,ResName=2,ResNum=60_A) 0     0.454     4.379     29.834   L 
 H-H_-0.417000(PDBName=H,ResName=2,ResNum=60_A) 0     0.358     3.439     29.665   L 
 H-H_-0.417000(PDBName=H,ResName=2,ResNum=60_A) 0     1.281     4.69      29.459   L 
 O-O_3--0.834000(PDBName=O,ResName=2,ResNum=61_A) 0    -2.313    -6.406    -14.454   L 
 H-H_-0.417000(PDBName=H,ResName=2,ResNum=61_A) 0    -2.495    -7.348    -14.43    L 
 H-H_-0.417000(PDBName=H,ResName=2,ResNum=61_A) 0    -1.502    -6.224    -13.973   L 
 O-O_3--0.834000(PDBName=O,ResName=2,ResNum=62_A) 0     14.716    12.      -19.686   L 
 H-H_-0.417000(PDBName=H,ResName=2,ResNum=62_A) 0     14.311    11.263   -20.149   L 
 H-H_-0.417000(PDBName=H,ResName=2,ResNum=62_A) 0     14.356    12.825   -20.019   L 
 O-O_3--0.834000(PDBName=O,ResName=2,ResNum=63_A) 0     12.473    0.999     22.089   L 
 H-H_-0.417000(PDBName=H,ResName=2,ResNum=63_A) 0     12.087    1.872     21.989   L 
 H-H_-0.417000(PDBName=H,ResName=2,ResNum=63_A) 0     11.776    0.355     22.239   L 
 O-O_3--0.834000(PDBName=O,ResName=2,ResNum=64_A) 0     20.527   -1.449    -3.402    L 
 H-H_-0.417000(PDBName=H,ResName=2,ResNum=64_A) 0     19.921   -1.87     -2.788    L 
 H-H_-0.417000(PDBName=H,ResName=2,ResNum=64_A) 0     21.316   -1.988    -3.495    L 
 O-O_3--0.834000(PDBName=O,ResName=2,ResNum=65_A) 0    -1.182    -7.188    -7.14     L 
 H-H_-0.417000(PDBName=H,ResName=2,ResNum=65_A) 0    -0.266    -6.9      -7.11     L 
 H-H_-0.417000(PDBName=H,ResName=2,ResNum=65_A) 0    -1.66     -6.671    -7.793    L 
 O-O_3--0.834000(PDBName=O,ResName=2,ResNum=66_A) 0    -8.745     16.231   -29.074   L 
 H-H_-0.417000(PDBName=H,ResName=2,ResNum=66_A) 0    -9.664     16.258   -28.795   L 
 H-H_-0.417000(PDBName=H,ResName=2,ResNum=66_A) 0    -8.211     16.752   -28.469   L 
 O-O_3--0.834000(PDBName=O,ResName=2,ResNum=67_A) 0    -0.742    -8.524     11.305   L 
 H-H_-0.417000(PDBName=H,ResName=2,ResNum=67_A) 0     0.167    -8.377     11.031   L 
 H-H_-0.417000(PDBName=H,ResName=2,ResNum=67_A) 0    -1.285    -8.702     10.533   L 
 O-O_3--0.834000(PDBName=O,ResName=2,ResNum=68_A) 0     21.162   -4.942    -8.858    L 
 H-H_-0.417000(PDBName=H,ResName=2,ResNum=68_A) 0     21.132   -4.833    -7.905    L 
 H-H_-0.417000(PDBName=H,ResName=2,ResNum=68_A) 0     20.302   -4.736    -9.232    L 
 O-O_3--0.834000(PDBName=O,ResName=2,ResNum=69_A) 0    -21.936    6.156     8.003    L 
 H-H_-0.417000(PDBName=H,ResName=2,ResNum=69_A) 0    -21.65     6.83      7.382    L 
 H-H_-0.417000(PDBName=H,ResName=2,ResNum=69_A) 0    -21.188    5.868     8.532    L 
 O-O_3--0.834000(PDBName=O,ResName=2,ResNum=70_A) 0     19.983   -4.493     8.571    L 
 H-H_-0.417000(PDBName=H,ResName=2,ResNum=70_A) 0     19.047   -4.391     8.381    L 
 H-H_-0.417000(PDBName=H,ResName=2,ResNum=70_A) 0     20.413   -4.935     7.835    L 
 O-O_3--0.834000(PDBName=O,ResName=2,ResNum=71_A) 0     2.876    -20.136   -12.088   L 
 H-H_-0.417000(PDBName=H,ResName=2,ResNum=71_A) 0     2.201    -19.611   -12.525   L 
 H-H_-0.417000(PDBName=H,ResName=2,ResNum=71_A) 0     3.451    -19.56    -11.579   L 
 O-O_3--0.834000(PDBName=O,ResName=2,ResNum=72_A) 0     14.362   -31.346   -4.021    L 
 H-H_-0.417000(PDBName=H,ResName=2,ResNum=72_A) 0     13.637   -30.861   -3.619    L 
 H-H_-0.417000(PDBName=H,ResName=2,ResNum=72_A) 0     14.095   -31.661   -4.888    L 
 O-O_3--0.834000(PDBName=O,ResName=2,ResNum=73_A) 0    -10.937   -10.514   -18.073   L 
 H-H_-0.417000(PDBName=H,ResName=2,ResNum=73_A) 0    -11.001   -11.212   -17.417   L 
 H-H_-0.417000(PDBName=H,ResName=2,ResNum=73_A) 0    -10.038   -10.47    -18.409   L 
 O-O_3--0.834000(PDBName=O,ResName=2,ResNum=74_A) 0    -14.865   -24.572    4.512    L 
 H-H_-0.417000(PDBName=H,ResName=2,ResNum=74_A) 0    -14.466   -23.703    4.419    L 
 H-H_-0.417000(PDBName=H,ResName=2,ResNum=74_A) 0    -15.269   -24.83     3.681    L 
 O-O_3--0.834000(PDBName=O,ResName=2,ResNum=75_A) 0    -17.01    -12.089    25.085   L 
 H-H_-0.417000(PDBName=H,ResName=2,ResNum=75_A) 0    -17.039   -11.256    24.608   L 
 H-H_-0.417000(PDBName=H,ResName=2,ResNum=75_A) 0    -17.367   -12.788    24.532   L 
 O-O_3--0.834000(PDBName=O,ResName=2,ResNum=76_A) 0     6.161     6.709    -16.442   L 
 H-H_-0.417000(PDBName=H,ResName=2,ResNum=76_A) 0     6.827     6.195    -15.98    L 
 H-H_-0.417000(PDBName=H,ResName=2,ResNum=76_A) 0     5.579     7.129    -15.804   L 
 O-O_3--0.834000(PDBName=O,ResName=2,ResNum=77_A) 0     16.647   -12.968    11.437   L 
 H-H_-0.417000(PDBName=H,ResName=2,ResNum=77_A) 0     16.011   -13.557    11.024   L 
 H-H_-0.417000(PDBName=H,ResName=2,ResNum=77_A) 0     16.338   -12.062    11.365   L 
 O-O_3--0.834000(PDBName=O,ResName=2,ResNum=78_A) 0    -18.844   -5.218     8.264    L 
 H-H_-0.417000(PDBName=H,ResName=2,ResNum=78_A) 0    -19.619   -4.655     8.33     L 
 H-H_-0.417000(PDBName=H,ResName=2,ResNum=78_A) 0    -18.069   -4.733     8.557    L 
 O-O_3--0.834000(PDBName=O,ResName=2,ResNum=79_A) 0     24.901    2.723     4.432    L 
 H-H_-0.417000(PDBName=H,ResName=2,ResNum=79_A) 0     24.24     3.255     4.882    L 
 H-H_-0.417000(PDBName=H,ResName=2,ResNum=79_A) 0     25.729    2.763     4.916    L 
 O-O_3--0.834000(PDBName=O,ResName=2,ResNum=80_A) 0     15.539    16.593   -1.562    L 
 H-H_-0.417000(PDBName=H,ResName=2,ResNum=80_A) 0     14.609    16.59    -1.322    L 
 H-H_-0.417000(PDBName=H,ResName=2,ResNum=80_A) 0     15.769    15.753   -1.965    L 
 O-O_3--0.834000(PDBName=O,ResName=2,ResNum=81_A) 0     27.74     4.439     2.682    L 
 H-H_-0.417000(PDBName=H,ResName=2,ResNum=81_A) 0     28.246    5.202     2.972    L 
 H-H_-0.417000(PDBName=H,ResName=2,ResNum=81_A) 0     28.118    4.094     1.87     L 
 O-O_3--0.834000(PDBName=O,ResName=2,ResNum=82_A) 0     5.591     20.29    -17.558   L 
 H-H_-0.417000(PDBName=H,ResName=2,ResNum=82_A) 0     6.264     19.681   -17.871   L 
 H-H_-0.417000(PDBName=H,ResName=2,ResNum=82_A) 0     4.756     19.826   -17.466   L 
 O-O_3--0.834000(PDBName=O,ResName=2,ResNum=83_A) 0    -0.4       21.119    1.49     L 
 H-H_-0.417000(PDBName=H,ResName=2,ResNum=83_A) 0     0.548     21.253    1.559    L 
 H-H_-0.417000(PDBName=H,ResName=2,ResNum=83_A) 0    -0.585     20.182    1.392    L 
 O-O_3--0.834000(PDBName=O,ResName=2,ResNum=84_A) 0    -3.262    -7.838    -28.695   L 
 H-H_-0.417000(PDBName=H,ResName=2,ResNum=84_A) 0    -3.276    -8.797    -28.738   L 
 H-H_-0.417000(PDBName=H,ResName=2,ResNum=84_A) 0    -2.353    -7.531    -28.656   L 
 O-O_3--0.834000(PDBName=O,ResName=2,ResNum=85_A) 0     3.945     31.879   -2.67     L 
 H-H_-0.417000(PDBName=H,ResName=2,ResNum=85_A) 0     3.131     31.37    -2.654    L 
 H-H_-0.417000(PDBName=H,ResName=2,ResNum=85_A) 0     3.823     32.66    -3.215    L 
 O-O_3--0.834000(PDBName=O,ResName=2,ResNum=86_A) 0    -9.377    -21.399    14.705   L 
 H-H_-0.417000(PDBName=H,ResName=2,ResNum=86_A) 0    -8.447    -21.572    14.541   L 
 H-H_-0.417000(PDBName=H,ResName=2,ResNum=86_A) 0    -9.574    -21.552    15.632   L 
 O-O_3--0.834000(PDBName=O,ResName=2,ResNum=87_A) 0     11.826    31.498    6.89     L 
 H-H_-0.417000(PDBName=H,ResName=2,ResNum=87_A) 0     12.618    31.743    6.407    L 
 H-H_-0.417000(PDBName=H,ResName=2,ResNum=87_A) 0     11.405    32.288    7.239    L 
 O-O_3--0.834000(PDBName=O,ResName=2,ResNum=88_A) 0     1.255    -4.98      24.954   L 
 H-H_-0.417000(PDBName=H,ResName=2,ResNum=88_A) 0     0.84     -4.535     25.697   L 
 H-H_-0.417000(PDBName=H,ResName=2,ResNum=88_A) 0     2.105    -4.573     24.771   L 
 O-O_3--0.834000(PDBName=O,ResName=2,ResNum=89_A) 0     2.288     34.458    2.471    L 
 H-H_-0.417000(PDBName=H,ResName=2,ResNum=89_A) 0     1.459     34.896    2.264    L 
 H-H_-0.417000(PDBName=H,ResName=2,ResNum=89_A) 0     2.133     33.772    3.125    L 
 O-O_3--0.834000(PDBName=O,ResName=2,ResNum=90_A) 0    -0.711     0.178     21.294   L 
 H-H_-0.417000(PDBName=H,ResName=2,ResNum=90_A) 0    -1.382    -0.23      21.845   L 
 H-H_-0.417000(PDBName=H,ResName=2,ResNum=90_A) 0    -0.983     1.07      21.064   L 
 O-O_3--0.834000(PDBName=O,ResName=2,ResNum=91_A) 0     5.734    -21.605    14.735   L 
 H-H_-0.417000(PDBName=H,ResName=2,ResNum=91_A) 0     6.336    -21.362    15.443   L 
 H-H_-0.417000(PDBName=H,ResName=2,ResNum=91_A) 0     6.162    -22.238    14.154   L 
 O-O_3--0.834000(PDBName=O,ResName=2,ResNum=92_A) 0    -28.779   -1.21     -7.483    L 
 H-H_-0.417000(PDBName=H,ResName=2,ResNum=92_A) 0    -29.472   -0.829    -8.027    L 
 H-H_-0.417000(PDBName=H,ResName=2,ResNum=92_A) 0    -28.899   -0.936    -6.571    L 
 O-O_3--0.834000(PDBName=O,ResName=2,ResNum=93_A) 0     1.937     17.01     29.358   L 
 H-H_-0.417000(PDBName=H,ResName=2,ResNum=93_A) 0     2.613     17.163    28.694   L 
 H-H_-0.417000(PDBName=H,ResName=2,ResNum=93_A) 0     1.724     16.074    29.39    L 
 O-O_3--0.834000(PDBName=O,ResName=2,ResNum=94_A) 0    -19.108   -26.448   -2.976    L 
 H-H_-0.417000(PDBName=H,ResName=2,ResNum=94_A) 0    -18.302   -26.783   -2.576    L 
 H-H_-0.417000(PDBName=H,ResName=2,ResNum=94_A) 0    -19.869   -26.843   -2.542    L 
 O-O_3--0.834000(PDBName=O,ResName=2,ResNum=95_A) 0     19.604    6.354     2.627    L 
 H-H_-0.417000(PDBName=H,ResName=2,ResNum=95_A) 0     18.828    6.675     2.162    L 
 H-H_-0.417000(PDBName=H,ResName=2,ResNum=95_A) 0     20.271    6.083     1.991    L 
 O-O_3--0.834000(PDBName=O,ResName=2,ResNum=96_A) 0     17.707    9.738    -23.418   L 
 H-H_-0.417000(PDBName=H,ResName=2,ResNum=96_A) 0     17.452    8.995    -22.866   L 
 H-H_-0.417000(PDBName=H,ResName=2,ResNum=96_A) 0     17.017    9.91     -24.064   L 
 O-O_3--0.834000(PDBName=O,ResName=2,ResNum=97_A) 0    -1.612     29.014   -9.359    L 
 H-H_-0.417000(PDBName=H,ResName=2,ResNum=97_A) 0    -1.628     28.458   -10.141   L 
 H-H_-0.417000(PDBName=H,ResName=2,ResNum=97_A) 0    -1.887     29.904   -9.592    L 
 O-O_3--0.834000(PDBName=O,ResName=2,ResNum=98_A) 0     9.436    -1.648     24.477   L 
 H-H_-0.417000(PDBName=H,ResName=2,ResNum=98_A) 0     8.654    -2.051     24.093   L 
 H-H_-0.417000(PDBName=H,ResName=2,ResNum=98_A) 0     10.1     -1.521     23.795   L 
 O-O_3--0.834000(PDBName=O,ResName=2,ResNum=99_A) 0     5.451     12.156   -22.225   L 
 H-H_-0.417000(PDBName=H,ResName=2,ResNum=99_A) 0     5.002     12.294   -21.388   L 
 H-H_-0.417000(PDBName=H,ResName=2,ResNum=99_A) 0     4.801     12.003   -22.916   L 
 O-O_3--0.834000(PDBName=O,ResName=2,ResNum=100_A) 0     9.858     1.736     0.614    L 
 H-H_-0.417000(PDBName=H,ResName=2,ResNum=100_A) 0     10.679    2.225     0.695    L 
 H-H_-0.417000(PDBName=H,ResName=2,ResNum=100_A) 0     9.137     2.345     0.438    L 
 O-O_3--0.834000(PDBName=O,ResName=2,ResNum=101_A) 0     19.402   -1.829    -11.636   L 
 H-H_-0.417000(PDBName=H,ResName=2,ResNum=101_A) 0     20.251   -1.602    -12.023   L 
 H-H_-0.417000(PDBName=H,ResName=2,ResNum=101_A) 0     19.02    -2.57     -12.112   L 
 O-O_3--0.834000(PDBName=O,ResName=2,ResNum=102_A) 0    -8.766    -26.493    13.026   L 
 H-H_-0.417000(PDBName=H,ResName=2,ResNum=102_A) 0    -8.569    -27.032    12.256   L 
 H-H_-0.417000(PDBName=H,ResName=2,ResNum=102_A) 0    -8.154    -26.709    13.734   L 
 O-O_3--0.834000(PDBName=O,ResName=2,ResNum=103_A) 0    -15.313   -5.102     14.691   L 
 H-H_-0.417000(PDBName=H,ResName=2,ResNum=103_A) 0    -15.083   -6.026     14.808   L 
 H-H_-0.417000(PDBName=H,ResName=2,ResNum=103_A) 0    -14.52    -4.595     14.502   L 
 O-O_3--0.834000(PDBName=O,ResName=2,ResNum=104_A) 0    -14.947    2.294     1.555    L 
 H-H_-0.417000(PDBName=H,ResName=2,ResNum=104_A) 0    -14.263    2.869     1.906    L 
 H-H_-0.417000(PDBName=H,ResName=2,ResNum=104_A) 0    -14.693    1.377     1.684    L 
 O-O_3--0.834000(PDBName=O,ResName=2,ResNum=105_A) 0     19.392   -20.05    -19.974   L 
 H-H_-0.417000(PDBName=H,ResName=2,ResNum=105_A) 0     19.067   -20.925   -20.196   L 
 H-H_-0.417000(PDBName=H,ResName=2,ResNum=105_A) 0     18.685   -19.408   -20.079   L 
 O-O_3--0.834000(PDBName=O,ResName=2,ResNum=106_A) 0     7.865    -19.628   -2.538    L 
 H-H_-0.417000(PDBName=H,ResName=2,ResNum=106_A) 0     7.775    -18.757   -2.932    L 
 H-H_-0.417000(PDBName=H,ResName=2,ResNum=106_A) 0     8.638    -19.645   -1.97     L 
 O-O_3--0.834000(PDBName=O,ResName=2,ResNum=107_A) 0    -13.155   -31.75     3.875    L 
 H-H_-0.417000(PDBName=H,ResName=2,ResNum=107_A) 0    -13.093   -32.311    3.098    L 
 H-H_-0.417000(PDBName=H,ResName=2,ResNum=107_A) 0    -12.834   -32.23     4.642    L 
 O-O_3--0.834000(PDBName=O,ResName=2,ResNum=108_A) 0    -2.41      10.765   -8.592    L 
 H-H_-0.417000(PDBName=H,ResName=2,ResNum=108_A) 0    -2.33      11.721   -8.625    L 
 H-H_-0.417000(PDBName=H,ResName=2,ResNum=108_A) 0    -1.537     10.373   -8.515    L 
 O-O_3--0.834000(PDBName=O,ResName=2,ResNum=109_A) 0    -4.115     28.924    12.771   L 
 H-H_-0.417000(PDBName=H,ResName=2,ResNum=109_A) 0    -3.777     29.627    12.213   L 
 H-H_-0.417000(PDBName=H,ResName=2,ResNum=109_A) 0    -3.552     28.828    13.543   L 
 O-O_3--0.834000(PDBName=O,ResName=2,ResNum=110_A) 0    -0.144     23.669    11.406   L 
 H-H_-0.417000(PDBName=H,ResName=2,ResNum=110_A) 0    -0.482     23.069    12.075   L 
 H-H_-0.417000(PDBName=H,ResName=2,ResNum=110_A) 0    -0.685     24.462    11.384   L 
 O-O_3--0.834000(PDBName=O,ResName=2,ResNum=111_A) 0     27.931    18.537    3.891    L 
 H-H_-0.417000(PDBName=H,ResName=2,ResNum=111_A) 0     28.644    19.099    3.58     L 
 H-H_-0.417000(PDBName=H,ResName=2,ResNum=111_A) 0     28.219    17.621    3.887    L 
 O-O_3--0.834000(PDBName=O,ResName=2,ResNum=112_A) 0     22.574   -13.362   -20.772   L 
 H-H_-0.417000(PDBName=H,ResName=2,ResNum=112_A) 0     22.671   -12.414   -20.887   L 
 H-H_-0.417000(PDBName=H,ResName=2,ResNum=112_A) 0     23.204   -13.819   -21.334   L 
 O-O_3--0.834000(PDBName=O,ResName=2,ResNum=113_A) 0     15.738    4.392    -25.504   L 
 H-H_-0.417000(PDBName=H,ResName=2,ResNum=113_A) 0     15.251    3.828    -26.109   L 
 H-H_-0.417000(PDBName=H,ResName=2,ResNum=113_A) 0     15.972    5.211    -25.947   L 
 O-O_3--0.834000(PDBName=O,ResName=2,ResNum=114_A) 0     23.089    11.148   -10.04    L 
 H-H_-0.417000(PDBName=H,ResName=2,ResNum=114_A) 0     22.263    11.13    -9.551    L 
 H-H_-0.417000(PDBName=H,ResName=2,ResNum=114_A) 0     23.815    10.926   -9.453    L 
 O-O_3--0.834000(PDBName=O,ResName=2,ResNum=115_A) 0    -26.311   -2.178    -22.978   L 
 H-H_-0.417000(PDBName=H,ResName=2,ResNum=115_A) 0    -25.841   -3.015    -22.965   L 
 H-H_-0.417000(PDBName=H,ResName=2,ResNum=115_A) 0    -25.679   -1.455    -22.981   L 
 O-O_3--0.834000(PDBName=O,ResName=2,ResNum=116_A) 0     7.499    -1.75     -8.629    L 
 H-H_-0.417000(PDBName=H,ResName=2,ResNum=116_A) 0     8.148    -2.457    -8.595    L 
 H-H_-0.417000(PDBName=H,ResName=2,ResNum=116_A) 0     6.718    -2.007    -8.134    L 
 O-O_3--0.834000(PDBName=O,ResName=2,ResNum=117_A) 0     3.189    -4.478    -21.578   L 
 H-H_-0.417000(PDBName=H,ResName=2,ResNum=117_A) 0     3.179    -4.462    -22.538   L 
 H-H_-0.417000(PDBName=H,ResName=2,ResNum=117_A) 0     3.628    -3.69     -21.248   L 
 O-O_3--0.834000(PDBName=O,ResName=2,ResNum=118_A) 0    -2.621    -4.796    -10.994   L 
 H-H_-0.417000(PDBName=H,ResName=2,ResNum=118_A) 0    -3.203    -4.117    -10.643   L 
 H-H_-0.417000(PDBName=H,ResName=2,ResNum=118_A) 0    -2.798    -4.916    -11.931   L 
 O-O_3--0.834000(PDBName=O,ResName=2,ResNum=119_A) 0     3.11     -18.922    3.926    L 
 H-H_-0.417000(PDBName=H,ResName=2,ResNum=119_A) 0     2.807    -19.71     3.468    L 
 H-H_-0.417000(PDBName=H,ResName=2,ResNum=119_A) 0     4.       -19.064    4.256    L 
 O-O_3--0.834000(PDBName=O,ResName=2,ResNum=120_A) 0     1.173     25.625   -6.409    L 
 H-H_-0.417000(PDBName=H,ResName=2,ResNum=120_A) 0     0.405     25.05    -6.373    L 
 H-H_-0.417000(PDBName=H,ResName=2,ResNum=120_A) 0     1.867     25.268   -5.85     L 
 O-O_3--0.834000(PDBName=O,ResName=2,ResNum=121_A) 0     5.683     18.02    -12.254   L 
 H-H_-0.417000(PDBName=H,ResName=2,ResNum=121_A) 0     5.951     17.115   -12.43    L 
 H-H_-0.417000(PDBName=H,ResName=2,ResNum=121_A) 0     6.376     18.47    -11.765   L 
 O-O_3--0.834000(PDBName=O,ResName=2,ResNum=122_A) 0    -20.889   -8.878    -6.687    L 
 H-H_-0.417000(PDBName=H,ResName=2,ResNum=122_A) 0    -20.262   -8.284    -7.105    L 
 H-H_-0.417000(PDBName=H,ResName=2,ResNum=122_A) 0    -20.473   -9.73     -6.536    L 
 O-O_3--0.834000(PDBName=O,ResName=2,ResNum=123_A) 0     7.481     24.805    18.275   L 
 H-H_-0.417000(PDBName=H,ResName=2,ResNum=123_A) 0     6.532     24.946    18.239   L 
 H-H_-0.417000(PDBName=H,ResName=2,ResNum=123_A) 0     7.901     25.556    18.7     L 
 O-O_3--0.834000(PDBName=O,ResName=2,ResNum=124_A) 0    -21.315    9.899     9.977    L 
 H-H_-0.417000(PDBName=H,ResName=2,ResNum=124_A) 0    -21.775    10.709    9.746    L 
 H-H_-0.417000(PDBName=H,ResName=2,ResNum=124_A) 0    -21.404    9.265     9.261    L 
 O-O_3--0.834000(PDBName=O,ResName=2,ResNum=125_A) 0    -4.001    -15.622   -10.946   L 
 H-H_-0.417000(PDBName=H,ResName=2,ResNum=125_A) 0    -3.346    -16.324   -10.958   L 
 H-H_-0.417000(PDBName=H,ResName=2,ResNum=125_A) 0    -3.839    -15.02    -11.676   L 
 O-O_3--0.834000(PDBName=O,ResName=2,ResNum=126_A) 0     4.099    -15.183   -17.999   L 
 H-H_-0.417000(PDBName=H,ResName=2,ResNum=126_A) 0     4.452    -16.055   -18.191   L 
 H-H_-0.417000(PDBName=H,ResName=2,ResNum=126_A) 0     4.478    -14.543   -18.607   L 
 O-O_3--0.834000(PDBName=O,ResName=2,ResNum=127_A) 0     21.351    15.102   -3.648    L 
 H-H_-0.417000(PDBName=H,ResName=2,ResNum=127_A) 0     20.453    15.44    -3.671    L 
 H-H_-0.417000(PDBName=H,ResName=2,ResNum=127_A) 0     21.97     15.836   -3.663    L 
 O-O_3--0.834000(PDBName=O,ResName=2,ResNum=128_A) 0     12.627   -14.012   -27.993   L 
 H-H_-0.417000(PDBName=H,ResName=2,ResNum=128_A) 0     13.345   -13.462   -27.67    L 
 H-H_-0.417000(PDBName=H,ResName=2,ResNum=128_A) 0     12.978   -14.851   -28.3     L 
 O-O_3--0.834000(PDBName=O,ResName=2,ResNum=129_A) 0     20.426   -13.95    -7.567    L 
 H-H_-0.417000(PDBName=H,ResName=2,ResNum=129_A) 0     19.539   -13.596   -7.662    L 
 H-H_-0.417000(PDBName=H,ResName=2,ResNum=129_A) 0     20.651   -14.007   -6.635    L 
 O-O_3--0.834000(PDBName=O,ResName=2,ResNum=130_A) 0    -10.737   -18.609   -23.435   L 
 H-H_-0.417000(PDBName=H,ResName=2,ResNum=130_A) 0    -10.416   -19.509   -23.529   L 
 H-H_-0.417000(PDBName=H,ResName=2,ResNum=130_A) 0    -11.696   -18.604   -23.471   L 
 O-O_3--0.834000(PDBName=O,ResName=2,ResNum=131_A) 0    -3.059     22.773   -17.231   L 
 H-H_-0.417000(PDBName=H,ResName=2,ResNum=131_A) 0    -3.423     21.885   -17.253   L 
 H-H_-0.417000(PDBName=H,ResName=2,ResNum=131_A) 0    -2.1       22.727   -17.223   L 
 O-O_3--0.834000(PDBName=O,ResName=2,ResNum=132_A) 0     2.859     24.633    10.573   L 
 H-H_-0.417000(PDBName=H,ResName=2,ResNum=132_A) 0     2.465     23.759    10.522   L 
 H-H_-0.417000(PDBName=H,ResName=2,ResNum=132_A) 0     2.165     25.295    10.628   L 
 O-O_3--0.834000(PDBName=O,ResName=2,ResNum=133_A) 0     15.147    1.616     14.085   L 
 H-H_-0.417000(PDBName=H,ResName=2,ResNum=133_A) 0     14.333    1.533     14.587   L 
 H-H_-0.417000(PDBName=H,ResName=2,ResNum=133_A) 0     15.355    2.545     13.961   L 
 O-O_3--0.834000(PDBName=O,ResName=2,ResNum=134_A) 0    -15.655    22.445    5.172    L 
 H-H_-0.417000(PDBName=H,ResName=2,ResNum=134_A) 0    -15.334    21.54     5.182    L 
 H-H_-0.417000(PDBName=H,ResName=2,ResNum=134_A) 0    -15.314    22.915    5.937    L 
 O-O_3--0.834000(PDBName=O,ResName=2,ResNum=135_A) 0     20.889   -4.088    -26.976   L 
 H-H_-0.417000(PDBName=H,ResName=2,ResNum=135_A) 0     20.877   -3.191    -27.318   L 
 H-H_-0.417000(PDBName=H,ResName=2,ResNum=135_A) 0     19.99    -4.372    -26.792   L 
 O-O_3--0.834000(PDBName=O,ResName=2,ResNum=136_A) 0     5.129     12.107   -0.823    L 
 H-H_-0.417000(PDBName=H,ResName=2,ResNum=136_A) 0     4.659     12.937   -0.932    L 
 H-H_-0.417000(PDBName=H,ResName=2,ResNum=136_A) 0     5.741     12.178   -0.088    L 
 O-O_3--0.834000(PDBName=O,ResName=2,ResNum=137_A) 0    -18.71     13.037   -25.825   L 
 H-H_-0.417000(PDBName=H,ResName=2,ResNum=137_A) 0    -19.667    13.045   -25.76    L 
 H-H_-0.417000(PDBName=H,ResName=2,ResNum=137_A) 0    -18.385    13.937   -25.905   L 
 O-O_3--0.834000(PDBName=O,ResName=2,ResNum=138_A) 0     19.531    9.933    -7.136    L 
 H-H_-0.417000(PDBName=H,ResName=2,ResNum=138_A) 0     18.612    9.8      -6.89     L 
 H-H_-0.417000(PDBName=H,ResName=2,ResNum=138_A) 0     19.726    10.873   -7.149    L 
 O-O_3--0.834000(PDBName=O,ResName=2,ResNum=139_A) 0     12.392   -15.376   -25.616   L 
 H-H_-0.417000(PDBName=H,ResName=2,ResNum=139_A) 0     11.44    -15.461   -25.713   L 
 H-H_-0.417000(PDBName=H,ResName=2,ResNum=139_A) 0     12.593   -14.972   -24.769   L 
 O-O_3--0.834000(PDBName=O,ResName=2,ResNum=140_A) 0     8.38      22.606    19.688   L 
 H-H_-0.417000(PDBName=H,ResName=2,ResNum=140_A) 0     7.912     21.813    19.959   L 
 H-H_-0.417000(PDBName=H,ResName=2,ResNum=140_A) 0     9.007     22.859    20.371   L 
 O-O_3--0.834000(PDBName=O,ResName=2,ResNum=141_A) 0    -13.513    27.469    16.363   L 
 H-H_-0.417000(PDBName=H,ResName=2,ResNum=141_A) 0    -13.445    27.243    15.432   L 
 H-H_-0.417000(PDBName=H,ResName=2,ResNum=141_A) 0    -14.249    26.996    16.756   L 
 O-O_3--0.834000(PDBName=O,ResName=2,ResNum=142_A) 0     13.744    0.343     19.74    L 
 H-H_-0.417000(PDBName=H,ResName=2,ResNum=142_A) 0     13.367   -0.502     19.484   L 
 H-H_-0.417000(PDBName=H,ResName=2,ResNum=142_A) 0     13.376    1.038     19.188   L 
 O-O_3--0.834000(PDBName=O,ResName=2,ResNum=143_A) 0    -9.327     11.212    0.073    L 
 H-H_-0.417000(PDBName=H,ResName=2,ResNum=143_A) 0    -9.758     10.476   -0.368    L 
 H-H_-0.417000(PDBName=H,ResName=2,ResNum=143_A) 0    -8.396     11.226   -0.162    L 
 O-O_3--0.834000(PDBName=O,ResName=2,ResNum=144_A) 0     24.544   -21.      -6.891    L 
 H-H_-0.417000(PDBName=H,ResName=2,ResNum=144_A) 0     24.371   -21.77    -6.345    L 
 H-H_-0.417000(PDBName=H,ResName=2,ResNum=144_A) 0     25.446   -21.036   -7.219    L 
 O-O_3--0.834000(PDBName=O,ResName=2,ResNum=145_A) 0     31.108    6.402     8.814    L 
 H-H_-0.417000(PDBName=H,ResName=2,ResNum=145_A) 0     31.064    5.443     8.849    L 
 H-H_-0.417000(PDBName=H,ResName=2,ResNum=145_A) 0     32.026    6.682     8.834    L 
 O-O_3--0.834000(PDBName=O,ResName=2,ResNum=146_A) 0    -0.85     -9.537     32.9     L 
 H-H_-0.417000(PDBName=H,ResName=2,ResNum=146_A) 0    -0.224    -10.187    33.226   L 
 H-H_-0.417000(PDBName=H,ResName=2,ResNum=146_A) 0    -1.723    -9.728     33.25    L 
 O-O_3--0.834000(PDBName=O,ResName=2,ResNum=147_A) 0     5.734    -9.737    -29.235   L 
 H-H_-0.417000(PDBName=H,ResName=2,ResNum=147_A) 0     4.845    -9.982    -28.97    L 
 H-H_-0.417000(PDBName=H,ResName=2,ResNum=147_A) 0     6.22     -10.524   -29.495   L 
 O-O_3--0.834000(PDBName=O,ResName=2,ResNum=148_A) 0    -16.664    10.109    19.467   L 
 H-H_-0.417000(PDBName=H,ResName=2,ResNum=148_A) 0    -15.944    10.34     18.875   L 
 H-H_-0.417000(PDBName=H,ResName=2,ResNum=148_A) 0    -17.242    9.474     19.037   L 
 O-O_3--0.834000(PDBName=O,ResName=2,ResNum=149_A) 0    -9.961     19.428    8.881    L 
 H-H_-0.417000(PDBName=H,ResName=2,ResNum=149_A) 0    -9.155     18.907    8.911    L 
 H-H_-0.417000(PDBName=H,ResName=2,ResNum=149_A) 0    -9.741     20.362    8.896    L 
 O-O_3--0.834000(PDBName=O,ResName=2,ResNum=150_A) 0     21.269    12.284    16.655   L 
 H-H_-0.417000(PDBName=H,ResName=2,ResNum=150_A) 0     20.322    12.373    16.522   L 
 H-H_-0.417000(PDBName=H,ResName=2,ResNum=150_A) 0     21.674    13.154    16.675   L 
 O-O_3--0.834000(PDBName=O,ResName=2,ResNum=151_A) 0    -14.674   -18.393    2.1      L 
 H-H_-0.417000(PDBName=H,ResName=2,ResNum=151_A) 0    -14.658   -19.007    1.362    L 
 H-H_-0.417000(PDBName=H,ResName=2,ResNum=151_A) 0    -15.      -18.843    2.884    L 
 O-O_3--0.834000(PDBName=O,ResName=2,ResNum=152_A) 0     11.769   -12.24     9.652    L 
 H-H_-0.417000(PDBName=H,ResName=2,ResNum=152_A) 0     11.908   -13.014    9.101    L 
 H-H_-0.417000(PDBName=H,ResName=2,ResNum=152_A) 0     10.905   -12.293    10.068   L 
 O-O_3--0.834000(PDBName=O,ResName=2,ResNum=153_A) 0    -0.343     28.086    11.718   L 
 H-H_-0.417000(PDBName=H,ResName=2,ResNum=153_A) 0    -1.197     27.669    11.853   L 
 H-H_-0.417000(PDBName=H,ResName=2,ResNum=153_A) 0     0.343     27.415    11.696   L 
 O-O_3--0.834000(PDBName=O,ResName=2,ResNum=154_A) 0     4.89      10.735    29.873   L 
 H-H_-0.417000(PDBName=H,ResName=2,ResNum=154_A) 0     4.471     11.589    30.      L 
 H-H_-0.417000(PDBName=H,ResName=2,ResNum=154_A) 0     4.331     10.182    29.322   L 
 O-O_3--0.834000(PDBName=O,ResName=2,ResNum=155_A) 0    -17.557   -2.513     27.611   L 
 H-H_-0.417000(PDBName=H,ResName=2,ResNum=155_A) 0    -18.38    -2.333     28.072   L 
 H-H_-0.417000(PDBName=H,ResName=2,ResNum=155_A) 0    -17.601   -3.381     27.203   L 
 O-O_3--0.834000(PDBName=O,ResName=2,ResNum=156_A) 0    -12.942   -13.671    1.942    L 
 H-H_-0.417000(PDBName=H,ResName=2,ResNum=156_A) 0    -12.272   -13.08     2.293    L 
 H-H_-0.417000(PDBName=H,ResName=2,ResNum=156_A) 0    -12.526   -14.334    1.386    L 
 O-O_3--0.834000(PDBName=O,ResName=2,ResNum=157_A) 0     13.573    28.521   -11.054   L 
 H-H_-0.417000(PDBName=H,ResName=2,ResNum=157_A) 0     14.322    29.057   -10.784   L 
 H-H_-0.417000(PDBName=H,ResName=2,ResNum=157_A) 0     12.78     28.829   -10.609   L 
 O-O_3--0.834000(PDBName=O,ResName=2,ResNum=158_A) 0     14.691   -1.382     8.299    L 
 H-H_-0.417000(PDBName=H,ResName=2,ResNum=158_A) 0     14.777   -0.612     7.731    L 
 H-H_-0.417000(PDBName=H,ResName=2,ResNum=158_A) 0     13.761   -1.566     8.45     L 
 O-O_3--0.834000(PDBName=O,ResName=2,ResNum=159_A) 0    -13.964    15.816   -21.115   L 
 H-H_-0.417000(PDBName=H,ResName=2,ResNum=159_A) 0    -14.484    15.012   -21.037   L 
 H-H_-0.417000(PDBName=H,ResName=2,ResNum=159_A) 0    -14.008    16.14    -22.018   L 
 O-O_3--0.834000(PDBName=O,ResName=2,ResNum=160_A) 0     18.274   -4.035    -4.52     L 
 H-H_-0.417000(PDBName=H,ResName=2,ResNum=160_A) 0     17.571   -3.385    -4.583    L 
 H-H_-0.417000(PDBName=H,ResName=2,ResNum=160_A) 0     19.112   -3.624    -4.745    L 
 O-O_3--0.834000(PDBName=O,ResName=2,ResNum=161_A) 0    -9.551     17.045    1.301    L 
 H-H_-0.417000(PDBName=H,ResName=2,ResNum=161_A) 0    -8.953     16.366    0.978    L 
 H-H_-0.417000(PDBName=H,ResName=2,ResNum=161_A) 0    -9.083     17.881    1.362    L 
 O-O_3--0.834000(PDBName=O,ResName=2,ResNum=162_A) 0    -22.584   -10.241    5.17     L 
 H-H_-0.417000(PDBName=H,ResName=2,ResNum=162_A) 0    -22.704   -10.849    4.437    L 
 H-H_-0.417000(PDBName=H,ResName=2,ResNum=162_A) 0    -21.722   -10.385    5.568    L 
 O-O_3--0.834000(PDBName=O,ResName=2,ResNum=163_A) 0     5.255    -0.574    -2.302    L 
 H-H_-0.417000(PDBName=H,ResName=2,ResNum=163_A) 0     5.005     0.351    -2.358    L 
 H-H_-0.417000(PDBName=H,ResName=2,ResNum=163_A) 0     6.213    -0.648    -2.317    L 
 O-O_3--0.834000(PDBName=O,ResName=2,ResNum=164_A) 0    -0.77     -11.904   -20.886   L 
 H-H_-0.417000(PDBName=H,ResName=2,ResNum=164_A) 0    -0.57     -11.614   -21.779   L 
 H-H_-0.417000(PDBName=H,ResName=2,ResNum=164_A) 0    -1.696    -11.738   -20.694   L 
 O-O_3--0.834000(PDBName=O,ResName=2,ResNum=165_A) 0     20.41    -22.33     14.564   L 
 H-H_-0.417000(PDBName=H,ResName=2,ResNum=165_A) 0     19.958   -23.038    15.028   L 
 H-H_-0.417000(PDBName=H,ResName=2,ResNum=165_A) 0     21.317   -22.59     14.387   L 
 O-O_3--0.834000(PDBName=O,ResName=2,ResNum=166_A) 0     11.506    27.231    0.45     L 
 H-H_-0.417000(PDBName=H,ResName=2,ResNum=166_A) 0     11.379    26.762   -0.379    L 
 H-H_-0.417000(PDBName=H,ResName=2,ResNum=166_A) 0     11.92     28.08     0.278    L 
 O-O_3--0.834000(PDBName=O,ResName=2,ResNum=167_A) 0    -7.78      5.759    -9.212    L 
 H-H_-0.417000(PDBName=H,ResName=2,ResNum=167_A) 0    -7.345     6.322    -9.857    L 
 H-H_-0.417000(PDBName=H,ResName=2,ResNum=167_A) 0    -8.572     5.379    -9.6      L 
 O-O_3--0.834000(PDBName=O,ResName=2,ResNum=168_A) 0     23.831    13.746    9.048    L 
 H-H_-0.417000(PDBName=H,ResName=2,ResNum=168_A) 0     24.751    14.021    9.039    L 
 H-H_-0.417000(PDBName=H,ResName=2,ResNum=168_A) 0     23.42     13.973    8.211    L 
 O-O_3--0.834000(PDBName=O,ResName=2,ResNum=169_A) 0    -8.441     12.182   -23.132   L 
 H-H_-0.417000(PDBName=H,ResName=2,ResNum=169_A) 0    -7.953     12.3     -23.95    L 
 H-H_-0.417000(PDBName=H,ResName=2,ResNum=169_A) 0    -8.263     11.308   -22.775   L 
 O-O_3--0.834000(PDBName=O,ResName=2,ResNum=170_A) 0    -8.981    -10.764   -4.922    L 
 H-H_-0.417000(PDBName=H,ResName=2,ResNum=170_A) 0    -9.675    -10.895   -5.571    L 
 H-H_-0.417000(PDBName=H,ResName=2,ResNum=170_A) 0    -8.191    -10.434   -5.358    L 
 O-O_3--0.834000(PDBName=O,ResName=2,ResNum=171_A) 0    -20.362   -17.66     2.463    L 
 H-H_-0.417000(PDBName=H,ResName=2,ResNum=171_A) 0    -21.144   -18.195    2.313    L 
 H-H_-0.417000(PDBName=H,ResName=2,ResNum=171_A) 0    -19.582   -18.22     2.445    L 
 O-O_3--0.834000(PDBName=O,ResName=2,ResNum=172_A) 0     0.84     -9.314    -2.265    L 
 H-H_-0.417000(PDBName=H,ResName=2,ResNum=172_A) 0     0.92     -8.397    -1.989    L 
 H-H_-0.417000(PDBName=H,ResName=2,ResNum=172_A) 0     1.712    -9.716    -2.296    L 
 O-O_3--0.834000(PDBName=O,ResName=2,ResNum=173_A) 0    -12.386   -5.569    -13.311   L 
 H-H_-0.417000(PDBName=H,ResName=2,ResNum=173_A) 0    -13.075   -5.197    -12.755   L 
 H-H_-0.417000(PDBName=H,ResName=2,ResNum=173_A) 0    -11.785   -4.872    -13.586   L 
 O-O_3--0.834000(PDBName=O,ResName=2,ResNum=174_A) 0     10.447   -28.858    16.807   L 
 H-H_-0.417000(PDBName=H,ResName=2,ResNum=174_A) 0     9.992    -29.396    16.155   L 
 H-H_-0.417000(PDBName=H,ResName=2,ResNum=174_A) 0     10.558   -27.967    16.466   L 
 O-O_3--0.834000(PDBName=O,ResName=2,ResNum=175_A) 0     1.674     14.722   -23.638   L 
 H-H_-0.417000(PDBName=H,ResName=2,ResNum=175_A) 0     1.518     15.518   -23.126   L 
 H-H_-0.417000(PDBName=H,ResName=2,ResNum=175_A) 0     2.523     14.345   -23.395   L 
 O-O_3--0.834000(PDBName=O,ResName=2,ResNum=176_A) 0     5.066    -16.708   -24.366   L 
 H-H_-0.417000(PDBName=H,ResName=2,ResNum=176_A) 0     5.795    -16.527   -23.768   L 
 H-H_-0.417000(PDBName=H,ResName=2,ResNum=176_A) 0     4.703    -15.88    -24.689   L 
 O-O_3--0.834000(PDBName=O,ResName=2,ResNum=177_A) 0     4.845    -24.614    3.248    L 
 H-H_-0.417000(PDBName=H,ResName=2,ResNum=177_A) 0     4.079    -24.64     2.67     L 
 H-H_-0.417000(PDBName=H,ResName=2,ResNum=177_A) 0     4.557    -24.482    4.155    L 
 O-O_3--0.834000(PDBName=O,ResName=2,ResNum=178_A) 0    -21.343   -21.114   -5.236    L 
 H-H_-0.417000(PDBName=H,ResName=2,ResNum=178_A) 0    -21.252   -20.604   -6.044    L 
 H-H_-0.417000(PDBName=H,ResName=2,ResNum=178_A) 0    -21.286   -22.051   -5.44     L 
 O-O_3--0.834000(PDBName=O,ResName=2,ResNum=179_A) 0    -0.238     19.017    22.355   L 
 H-H_-0.417000(PDBName=H,ResName=2,ResNum=179_A) 0    -0.857     18.284    22.4     L 
 H-H_-0.417000(PDBName=H,ResName=2,ResNum=179_A) 0     0.518     18.765    21.819   L 
 O-O_3--0.834000(PDBName=O,ResName=2,ResNum=180_A) 0    -10.311    2.93     -7.346    L 
 H-H_-0.417000(PDBName=H,ResName=2,ResNum=180_A) 0    -10.317    2.102    -7.832    L 
 H-H_-0.417000(PDBName=H,ResName=2,ResNum=180_A) 0    -9.485     3.392    -7.511    L 
 O-O_3--0.834000(PDBName=O,ResName=2,ResNum=181_A) 0     25.342    10.677    12.976   L 
 H-H_-0.417000(PDBName=H,ResName=2,ResNum=181_A) 0     25.615    11.547    12.677   L 
 H-H_-0.417000(PDBName=H,ResName=2,ResNum=181_A) 0     26.026    10.3      13.534   L 
 O-O_3--0.834000(PDBName=O,ResName=2,ResNum=182_A) 0    -6.667    -11.746   -31.805   L 
 H-H_-0.417000(PDBName=H,ResName=2,ResNum=182_A) 0    -7.23     -12.433   -31.442   L 
 H-H_-0.417000(PDBName=H,ResName=2,ResNum=182_A) 0    -6.613    -11.014   -31.185   L 
 O-O_3--0.834000(PDBName=O,ResName=2,ResNum=183_A) 0     18.351   -6.942     25.844   L 
 H-H_-0.417000(PDBName=H,ResName=2,ResNum=183_A) 0     17.422   -7.142     25.98    L 
 H-H_-0.417000(PDBName=H,ResName=2,ResNum=183_A) 0     18.808   -7.729     25.537   L 
 O-O_3--0.834000(PDBName=O,ResName=2,ResNum=184_A) 0    -12.87    -2.607     8.704    L 
 H-H_-0.417000(PDBName=H,ResName=2,ResNum=184_A) 0    -13.742   -2.679     8.31     L 
 H-H_-0.417000(PDBName=H,ResName=2,ResNum=184_A) 0    -12.89    -2.96      9.597    L 
 O-O_3--0.834000(PDBName=O,ResName=2,ResNum=185_A) 0    -25.992    14.365   -5.506    L 
 H-H_-0.417000(PDBName=H,ResName=2,ResNum=185_A) 0    -26.223    14.529   -6.423    L 
 H-H_-0.417000(PDBName=H,ResName=2,ResNum=185_A) 0    -25.063    14.561   -5.368    L 
 O-O_3--0.834000(PDBName=O,ResName=2,ResNum=186_A) 0     14.55     27.674    8.212    L 
 H-H_-0.417000(PDBName=H,ResName=2,ResNum=186_A) 0     14.311    28.603    8.212    L 
 H-H_-0.417000(PDBName=H,ResName=2,ResNum=186_A) 0     13.769    27.141    8.047    L 
 O-O_3--0.834000(PDBName=O,ResName=2,ResNum=187_A) 0    -0.5       2.658    -31.012   L 
 H-H_-0.417000(PDBName=H,ResName=2,ResNum=187_A) 0     0.198     2.565    -30.36    L 
 H-H_-0.417000(PDBName=H,ResName=2,ResNum=187_A) 0    -1.353     2.658    -30.57    L 
 O-O_3--0.834000(PDBName=O,ResName=2,ResNum=188_A) 0     7.953    -0.96      27.023   L 
 H-H_-0.417000(PDBName=H,ResName=2,ResNum=188_A) 0     7.438    -0.761     26.238   L 
 H-H_-0.417000(PDBName=H,ResName=2,ResNum=188_A) 0     8.83     -0.578     26.936   L 
 O-O_3--0.834000(PDBName=O,ResName=2,ResNum=189_A) 0    -9.014     5.81      7.056    L 
 H-H_-0.417000(PDBName=H,ResName=2,ResNum=189_A) 0    -8.971     4.867     7.23     L 
 H-H_-0.417000(PDBName=H,ResName=2,ResNum=189_A) 0    -9.373     6.261     7.824    L 
 O-O_3--0.834000(PDBName=O,ResName=2,ResNum=190_A) 0    -0.928     17.254    2.67     L 
 H-H_-0.417000(PDBName=H,ResName=2,ResNum=190_A) 0    -0.406     17.078    3.457    L 
 H-H_-0.417000(PDBName=H,ResName=2,ResNum=190_A) 0    -1.658     16.631    2.623    L 
 O-O_3--0.834000(PDBName=O,ResName=2,ResNum=191_A) 0     12.984   -1.873    -15.955   L 
 H-H_-0.417000(PDBName=H,ResName=2,ResNum=191_A) 0     13.186   -1.892    -15.016   L 
 H-H_-0.417000(PDBName=H,ResName=2,ResNum=191_A) 0     12.56    -1.039    -16.175   L 
 O-O_3--0.834000(PDBName=O,ResName=2,ResNum=192_A) 0    -1.008    -20.435    14.449   L 
 H-H_-0.417000(PDBName=H,ResName=2,ResNum=192_A) 0    -0.181    -19.949    14.49    L 
 H-H_-0.417000(PDBName=H,ResName=2,ResNum=192_A) 0    -1.739    -19.817    14.375   L 
 O-O_3--0.834000(PDBName=O,ResName=2,ResNum=193_A) 0     3.467    -1.879    -0.059    L 
 H-H_-0.417000(PDBName=H,ResName=2,ResNum=193_A) 0     3.152    -2.26     -0.882    L 
 H-H_-0.417000(PDBName=H,ResName=2,ResNum=193_A) 0     3.566    -0.93     -0.161    L 
 O-O_3--0.834000(PDBName=O,ResName=2,ResNum=194_A) 0    -17.389    16.081   -16.839   L 
 H-H_-0.417000(PDBName=H,ResName=2,ResNum=194_A) 0    -17.21     17.022   -16.783   L 
 H-H_-0.417000(PDBName=H,ResName=2,ResNum=194_A) 0    -18.331    15.94    -16.964   L 
 O-O_3--0.834000(PDBName=O,ResName=2,ResNum=195_A) 0    -8.449     27.146    12.669   L 
 H-H_-0.417000(PDBName=H,ResName=2,ResNum=195_A) 0    -7.662     26.734    12.303   L 
 H-H_-0.417000(PDBName=H,ResName=2,ResNum=195_A) 0    -8.211     27.978    13.085   L 
 O-O_3--0.834000(PDBName=O,ResName=2,ResNum=196_A) 0    -24.549    3.289    -14.401   L 
 H-H_-0.417000(PDBName=H,ResName=2,ResNum=196_A) 0    -24.351    3.405    -13.469   L 
 H-H_-0.417000(PDBName=H,ResName=2,ResNum=196_A) 0    -25.439    3.601    -14.581   L 
 O-O_3--0.834000(PDBName=O,ResName=2,ResNum=197_A) 0    -4.351    -26.1      16.6     L 
 H-H_-0.417000(PDBName=H,ResName=2,ResNum=197_A) 0    -4.911    -25.32     16.595   L 
 H-H_-0.417000(PDBName=H,ResName=2,ResNum=197_A) 0    -4.536    -26.623    17.383   L 
 O-O_3--0.834000(PDBName=O,ResName=2,ResNum=198_A) 0     8.5       14.502    21.733   L 
 H-H_-0.417000(PDBName=H,ResName=2,ResNum=198_A) 0     9.292     13.977    21.864   L 
 H-H_-0.417000(PDBName=H,ResName=2,ResNum=198_A) 0     8.061     14.226    20.925   L 
 O-O_3--0.834000(PDBName=O,ResName=2,ResNum=199_A) 0     2.367     32.754    10.879   L 
 H-H_-0.417000(PDBName=H,ResName=2,ResNum=199_A) 0     1.498     33.018    11.191   L 
 H-H_-0.417000(PDBName=H,ResName=2,ResNum=199_A) 0     2.296     31.93     10.391   L 
 O-O_3--0.834000(PDBName=O,ResName=2,ResNum=200_A) 0    -27.188   -13.014    1.213    L 
 H-H_-0.417000(PDBName=H,ResName=2,ResNum=200_A) 0    -27.393   -12.175    0.794    L 
 H-H_-0.417000(PDBName=H,ResName=2,ResNum=200_A) 0    -26.706   -13.572    0.597    L 
 O-O_3--0.834000(PDBName=O,ResName=2,ResNum=201_A) 0    -2.71      0.788    -7.935    L 
 H-H_-0.417000(PDBName=H,ResName=2,ResNum=201_A) 0    -3.506     0.696    -8.464    L 
 H-H_-0.417000(PDBName=H,ResName=2,ResNum=201_A) 0    -2.345    -0.081    -7.752    L 
 O-O_3--0.834000(PDBName=O,ResName=2,ResNum=202_A) 0    -19.236    18.837    1.741    L 
 H-H_-0.417000(PDBName=H,ResName=2,ResNum=202_A) 0    -19.934    18.272    1.402    L 
 H-H_-0.417000(PDBName=H,ResName=2,ResNum=202_A) 0    -19.404    19.035    2.665    L 
 O-O_3--0.834000(PDBName=O,ResName=2,ResNum=203_A) 0    -5.731    -19.038   -11.663   L 
 H-H_-0.417000(PDBName=H,ResName=2,ResNum=203_A) 0    -5.327    -19.74    -12.178   L 
 H-H_-0.417000(PDBName=H,ResName=2,ResNum=203_A) 0    -5.179    -18.839   -10.903   L 
 O-O_3--0.834000(PDBName=O,ResName=2,ResNum=204_A) 0    -23.799   -6.25     -17.908   L 
 H-H_-0.417000(PDBName=H,ResName=2,ResNum=204_A) 0    -24.139   -6.8      -18.618   L 
 H-H_-0.417000(PDBName=H,ResName=2,ResNum=204_A) 0    -23.692   -6.78     -17.115   L 
 O-O_3--0.834000(PDBName=O,ResName=2,ResNum=205_A) 0    -18.012   -19.77    -3.448    L 
 H-H_-0.417000(PDBName=H,ResName=2,ResNum=205_A) 0    -18.859   -19.373   -3.663    L 
 H-H_-0.417000(PDBName=H,ResName=2,ResNum=205_A) 0    -17.323   -19.103   -3.495    L 
 O-O_3--0.834000(PDBName=O,ResName=2,ResNum=206_A) 0    -7.66     -14.577   -25.921   L 
 H-H_-0.417000(PDBName=H,ResName=2,ResNum=206_A) 0    -6.77     -14.568   -25.563   L 
 H-H_-0.417000(PDBName=H,ResName=2,ResNum=206_A) 0    -7.661    -15.028   -26.768   L 
 O-O_3--0.834000(PDBName=O,ResName=2,ResNum=207_A) 0    -8.214     29.19    -8.562    L 
 H-H_-0.417000(PDBName=H,ResName=2,ResNum=207_A) 0    -8.313     30.037   -9.004    L 
 H-H_-0.417000(PDBName=H,ResName=2,ResNum=207_A) 0    -7.392     28.778   -8.838    L 
 O-O_3--0.834000(PDBName=O,ResName=2,ResNum=208_A) 0     1.636     4.099    -0.336    L 
 H-H_-0.417000(PDBName=H,ResName=2,ResNum=208_A) 0     2.245     4.413    -1.008    L 
 H-H_-0.417000(PDBName=H,ResName=2,ResNum=208_A) 0     1.616     3.139    -0.345    L 
 O-O_3--0.834000(PDBName=O,ResName=2,ResNum=209_A) 0    -13.164   -6.738    -23.1     L 
 H-H_-0.417000(PDBName=H,ResName=2,ResNum=209_A) 0    -13.907   -6.495    -22.542   L 
 H-H_-0.417000(PDBName=H,ResName=2,ResNum=209_A) 0    -12.346   -6.454    -22.686   L 
 O-O_3--0.834000(PDBName=O,ResName=2,ResNum=210_A) 0    -9.677    -33.084    6.066    L 
 H-H_-0.417000(PDBName=H,ResName=2,ResNum=210_A) 0    -8.948    -32.46     6.068    L 
 H-H_-0.417000(PDBName=H,ResName=2,ResNum=210_A) 0    -10.509   -32.606    6.064    L 
 O-O_3--0.834000(PDBName=O,ResName=2,ResNum=211_A) 0     4.054     24.293    23.975   L 
 H-H_-0.417000(PDBName=H,ResName=2,ResNum=211_A) 0     4.121     24.218    24.93    L 
 H-H_-0.417000(PDBName=H,ResName=2,ResNum=211_A) 0     3.138     24.439    23.728   L 
 O-O_3--0.834000(PDBName=O,ResName=2,ResNum=212_A) 0    -8.777    -8.319     20.266   L 
 H-H_-0.417000(PDBName=H,ResName=2,ResNum=212_A) 0    -9.155    -7.532     20.667   L 
 H-H_-0.417000(PDBName=H,ResName=2,ResNum=212_A) 0    -8.791    -8.23      19.31    L 
 O-O_3--0.834000(PDBName=O,ResName=2,ResNum=213_A) 0     1.388    -9.684    -8.592    L 
 H-H_-0.417000(PDBName=H,ResName=2,ResNum=213_A) 0     0.514    -10.071   -8.506    L 
 H-H_-0.417000(PDBName=H,ResName=2,ResNum=213_A) 0     1.371    -8.778    -8.273    L 
 O-O_3--0.834000(PDBName=O,ResName=2,ResNum=214_A) 0    -4.184    -1.9       13.598   L 
 H-H_-0.417000(PDBName=H,ResName=2,ResNum=214_A) 0    -4.753    -1.204     13.263   L 
 H-H_-0.417000(PDBName=H,ResName=2,ResNum=214_A) 0    -4.03     -1.766     14.536   L 
 O-O_3--0.834000(PDBName=O,ResName=2,ResNum=215_A) 0     14.04     12.323    11.418   L 
 H-H_-0.417000(PDBName=H,ResName=2,ResNum=215_A) 0     13.272    12.612    10.92    L 
 H-H_-0.417000(PDBName=H,ResName=2,ResNum=215_A) 0     14.409    13.068    11.899   L 
 O-O_3--0.834000(PDBName=O,ResName=2,ResNum=216_A) 0    -9.806    -3.936    -25.01    L 
 H-H_-0.417000(PDBName=H,ResName=2,ResNum=216_A) 0    -9.752    -4.845    -25.313   L 
 H-H_-0.417000(PDBName=H,ResName=2,ResNum=216_A) 0    -9.386    -3.859    -24.15    L 
 O-O_3--0.834000(PDBName=O,ResName=2,ResNum=217_A) 0    -17.75    -15.496    25.881   L 
 H-H_-0.417000(PDBName=H,ResName=2,ResNum=217_A) 0    -16.995   -16.059    25.696   L 
 H-H_-0.417000(PDBName=H,ResName=2,ResNum=217_A) 0    -17.475   -14.765    26.44    L 
 O-O_3--0.834000(PDBName=O,ResName=2,ResNum=218_A) 0     1.969    -4.782    -30.544   L 
 H-H_-0.417000(PDBName=H,ResName=2,ResNum=218_A) 0     2.625    -4.191    -30.168   L 
 H-H_-0.417000(PDBName=H,ResName=2,ResNum=218_A) 0     2.059    -4.795    -31.5     L 
 O-O_3--0.834000(PDBName=O,ResName=2,ResNum=219_A) 0    -25.455    3.693    -21.307   L 
 H-H_-0.417000(PDBName=H,ResName=2,ResNum=219_A) 0    -24.807    4.398    -21.241   L 
 H-H_-0.417000(PDBName=H,ResName=2,ResNum=219_A) 0    -25.01     2.843    -21.277   L 
 O-O_3--0.834000(PDBName=O,ResName=2,ResNum=220_A) 0    -20.842   -7.237     25.22    L 
 H-H_-0.417000(PDBName=H,ResName=2,ResNum=220_A) 0    -21.614   -7.796     25.337   L 
 H-H_-0.417000(PDBName=H,ResName=2,ResNum=220_A) 0    -20.416   -7.448     24.386   L 
 O-O_3--0.834000(PDBName=O,ResName=2,ResNum=221_A) 0    -3.366     25.414    12.975   L 
 H-H_-0.417000(PDBName=H,ResName=2,ResNum=221_A) 0    -3.459     26.263    12.537   L 
 H-H_-0.417000(PDBName=H,ResName=2,ResNum=221_A) 0    -3.265     24.722    12.317   L 
 O-O_3--0.834000(PDBName=O,ResName=2,ResNum=222_A) 0     25.448   -13.157    6.643    L 
 H-H_-0.417000(PDBName=H,ResName=2,ResNum=222_A) 0     24.574   -12.802    6.464    L 
 H-H_-0.417000(PDBName=H,ResName=2,ResNum=222_A) 0     25.369   -14.058    6.964    L 
 O-O_3--0.834000(PDBName=O,ResName=2,ResNum=223_A) 0    -0.924     16.596   -13.838   L 
 H-H_-0.417000(PDBName=H,ResName=2,ResNum=223_A) 0    -1.313     17.473   -13.82    L 
 H-H_-0.417000(PDBName=H,ResName=2,ResNum=223_A) 0    -1.62      15.935   -13.802   L 
 O-O_3--0.834000(PDBName=O,ResName=2,ResNum=224_A) 0    -17.778    20.292   -15.222   L 
 H-H_-0.417000(PDBName=H,ResName=2,ResNum=224_A) 0    -17.514    19.573   -15.802   L 
 H-H_-0.417000(PDBName=H,ResName=2,ResNum=224_A) 0    -18.402    19.965   -14.569   L 
 O-O_3--0.834000(PDBName=O,ResName=2,ResNum=225_A) 0     6.459     20.561    1.848    L 
 H-H_-0.417000(PDBName=H,ResName=2,ResNum=225_A) 0     6.254     21.474    2.058    L 
 H-H_-0.417000(PDBName=H,ResName=2,ResNum=225_A) 0     5.661     20.031    1.903    L 
 O-O_3--0.834000(PDBName=O,ResName=2,ResNum=226_A) 0     7.587    -14.554    4.459    L 
 H-H_-0.417000(PDBName=H,ResName=2,ResNum=226_A) 0     6.69     -14.283    4.671    L 
 H-H_-0.417000(PDBName=H,ResName=2,ResNum=226_A) 0     8.139    -14.474    5.241    L 
 O-O_3--0.834000(PDBName=O,ResName=2,ResNum=227_A) 0    -26.672    10.913   -2.671    L 
 H-H_-0.417000(PDBName=H,ResName=2,ResNum=227_A) 0    -25.781    10.853   -3.023    L 
 H-H_-0.417000(PDBName=H,ResName=2,ResNum=227_A) 0    -27.212    10.213   -3.045    L 
 O-O_3--0.834000(PDBName=O,ResName=2,ResNum=228_A) 0     3.87      0.376    -34.223   L 
 H-H_-0.417000(PDBName=H,ResName=2,ResNum=228_A) 0     4.312     1.091    -33.759   L 
 H-H_-0.417000(PDBName=H,ResName=2,ResNum=228_A) 0     4.509    -0.306    -34.445   L 
 O-O_3--0.834000(PDBName=O,ResName=2,ResNum=229_A) 0    -5.296    -8.094     17.999   L 
 H-H_-0.417000(PDBName=H,ResName=2,ResNum=229_A) 0    -4.834    -8.689     18.594   L 
 H-H_-0.417000(PDBName=H,ResName=2,ResNum=229_A) 0    -5.467    -8.541     17.167   L 
 O-O_3--0.834000(PDBName=O,ResName=2,ResNum=230_A) 0    -0.686    -3.25     -27.396   L 
 H-H_-0.417000(PDBName=H,ResName=2,ResNum=230_A) 0    -1.308    -3.914    -27.09    L 
 H-H_-0.417000(PDBName=H,ResName=2,ResNum=230_A) 0    -1.103    -2.385    -27.375   L 
 O-O_3--0.834000(PDBName=O,ResName=2,ResNum=231_A) 0     3.226    -11.94     8.391    L 
 H-H_-0.417000(PDBName=H,ResName=2,ResNum=231_A) 0     3.714    -11.191    8.042    L 
 H-H_-0.417000(PDBName=H,ResName=2,ResNum=231_A) 0     3.811    -12.484    8.925    L 
 O-O_3--0.834000(PDBName=O,ResName=2,ResNum=232_A) 0     7.461    -18.015    16.025   L 
 H-H_-0.417000(PDBName=H,ResName=2,ResNum=232_A) 0     6.761    -17.748    16.626   L 
 H-H_-0.417000(PDBName=H,ResName=2,ResNum=232_A) 0     7.152    -18.736    15.472   L 
 O-O_3--0.834000(PDBName=O,ResName=2,ResNum=233_A) 0    -3.673     11.489   -3.708    L 
 H-H_-0.417000(PDBName=H,ResName=2,ResNum=233_A) 0    -4.623     11.435   -3.84     L 
 H-H_-0.417000(PDBName=H,ResName=2,ResNum=233_A) 0    -3.462     12.292   -3.226    L 
 O-O_3--0.834000(PDBName=O,ResName=2,ResNum=234_A) 0    -12.289    24.641    12.985   L 
 H-H_-0.417000(PDBName=H,ResName=2,ResNum=234_A) 0    -11.875    24.381    13.811   L 
 H-H_-0.417000(PDBName=H,ResName=2,ResNum=234_A) 0    -12.275    25.597    12.905   L 
 O-O_3--0.834000(PDBName=O,ResName=2,ResNum=235_A) 0    -27.274   -13.026    13.056   L 
 H-H_-0.417000(PDBName=H,ResName=2,ResNum=235_A) 0    -27.697   -13.33     13.863   L 
 H-H_-0.417000(PDBName=H,ResName=2,ResNum=235_A) 0    -27.067   -12.092    13.135   L 
 O-O_3--0.834000(PDBName=O,ResName=2,ResNum=236_A) 0     22.987   -3.151    -1.079    L 
 H-H_-0.417000(PDBName=H,ResName=2,ResNum=236_A) 0     22.074   -3.389    -1.253    L 
 H-H_-0.417000(PDBName=H,ResName=2,ResNum=236_A) 0     23.543   -3.929    -1.158    L 
 O-O_3--0.834000(PDBName=O,ResName=2,ResNum=237_A) 0    -10.788    4.364    -13.026   L 
 H-H_-0.417000(PDBName=H,ResName=2,ResNum=237_A) 0    -11.731    4.205    -12.941   L 
 H-H_-0.417000(PDBName=H,ResName=2,ResNum=237_A) 0    -10.591    5.268    -12.773   L 
 O-O_3--0.834000(PDBName=O,ResName=2,ResNum=238_A) 0    -17.224    2.409     24.166   L 
 H-H_-0.417000(PDBName=H,ResName=2,ResNum=238_A) 0    -16.509    2.016     24.67    L 
 H-H_-0.417000(PDBName=H,ResName=2,ResNum=238_A) 0    -18.041    1.936     24.343   L 
 O-O_3--0.834000(PDBName=O,ResName=2,ResNum=239_A) 0     19.449   -17.049    7.907    L 
 H-H_-0.417000(PDBName=H,ResName=2,ResNum=239_A) 0     20.017   -16.554    8.502    L 
 H-H_-0.417000(PDBName=H,ResName=2,ResNum=239_A) 0     18.789   -17.526    8.416    L 
 O-O_3--0.834000(PDBName=O,ResName=2,ResNum=240_A) 0     10.541   -15.964    27.665   L 
 H-H_-0.417000(PDBName=H,ResName=2,ResNum=240_A) 0     10.903   -16.766    27.282   L 
 H-H_-0.417000(PDBName=H,ResName=2,ResNum=240_A) 0     9.745    -15.713    27.191   L 
 O-O_3--0.834000(PDBName=O,ResName=2,ResNum=241_A) 0    -20.579   -5.316     27.807   L 
 H-H_-0.417000(PDBName=H,ResName=2,ResNum=241_A) 0    -20.023   -4.534     27.812   L 
 H-H_-0.417000(PDBName=H,ResName=2,ResNum=241_A) 0    -20.044   -6.089     27.61    L 
 O-O_3--0.834000(PDBName=O,ResName=2,ResNum=242_A) 0     1.615     10.826    10.724   L 
 H-H_-0.417000(PDBName=H,ResName=2,ResNum=242_A) 0     1.1       10.518    11.473   L 
 H-H_-0.417000(PDBName=H,ResName=2,ResNum=242_A) 0     2.112     10.094    10.352   L 
 O-O_3--0.834000(PDBName=O,ResName=2,ResNum=243_A) 0    -7.618     28.17    -5.333    L 
 H-H_-0.417000(PDBName=H,ResName=2,ResNum=243_A) 0    -8.289     28.602   -4.8      L 
 H-H_-0.417000(PDBName=H,ResName=2,ResNum=243_A) 0    -6.948     28.809   -5.588    L 
 O-O_3--0.834000(PDBName=O,ResName=2,ResNum=244_A) 0    -17.752    8.955    -12.87    L 
 H-H_-0.417000(PDBName=H,ResName=2,ResNum=244_A) 0    -18.015    8.05     -12.685   L 
 H-H_-0.417000(PDBName=H,ResName=2,ResNum=244_A) 0    -17.583    9.055    -13.81    L 
 O-O_3--0.834000(PDBName=O,ResName=2,ResNum=245_A) 0     0.202     26.77     2.612    L 
 H-H_-0.417000(PDBName=H,ResName=2,ResNum=245_A) 0    -0.628     26.355    2.366    L 
 H-H_-0.417000(PDBName=H,ResName=2,ResNum=245_A) 0     0.035     27.474    3.243    L 
 O-O_3--0.834000(PDBName=O,ResName=2,ResNum=246_A) 0    -9.072    -27.328   -2.842    L 
 H-H_-0.417000(PDBName=H,ResName=2,ResNum=246_A) 0    -8.407    -27.938   -3.17     L 
 H-H_-0.417000(PDBName=H,ResName=2,ResNum=246_A) 0    -8.941    -26.465   -3.244    L 
 O-O_3--0.834000(PDBName=O,ResName=2,ResNum=247_A) 0    -12.805   -9.164     3.952    L 
 H-H_-0.417000(PDBName=H,ResName=2,ResNum=247_A) 0    -11.894   -9.345     4.195    L 
 H-H_-0.417000(PDBName=H,ResName=2,ResNum=247_A) 0    -13.32    -9.972     4.013    L 
 O-O_3--0.834000(PDBName=O,ResName=2,ResNum=248_A) 0    -9.798     14.988    21.122   L 
 H-H_-0.417000(PDBName=H,ResName=2,ResNum=248_A) 0    -10.094    14.106    21.357   L 
 H-H_-0.417000(PDBName=H,ResName=2,ResNum=248_A) 0    -10.31     15.639    21.607   L 
 O-O_3--0.834000(PDBName=O,ResName=2,ResNum=249_A) 0     22.581    3.596     16.305   L 
 H-H_-0.417000(PDBName=H,ResName=2,ResNum=249_A) 0     22.226    2.705     16.258   L 
 H-H_-0.417000(PDBName=H,ResName=2,ResNum=249_A) 0     21.948    4.172     16.741   L 
 O-O_3--0.834000(PDBName=O,ResName=2,ResNum=250_A) 0    -17.497   -2.369     2.834    L 
 H-H_-0.417000(PDBName=H,ResName=2,ResNum=250_A) 0    -18.331   -2.799     3.038    L 
 H-H_-0.417000(PDBName=H,ResName=2,ResNum=250_A) 0    -17.009   -2.901     2.201    L 
 O-O_3--0.834000(PDBName=O,ResName=2,ResNum=251_A) 0    -16.672    22.3      21.208   L 
 H-H_-0.417000(PDBName=H,ResName=2,ResNum=251_A) 0    -15.749    22.062    21.09    L 
 H-H_-0.417000(PDBName=H,ResName=2,ResNum=251_A) 0    -17.188    21.509    21.383   L 
 O-O_3--0.834000(PDBName=O,ResName=2,ResNum=252_A) 0     21.883    4.838    -11.295   L 
 H-H_-0.417000(PDBName=H,ResName=2,ResNum=252_A) 0     22.735    5.278    -11.257   L 
 H-H_-0.417000(PDBName=H,ResName=2,ResNum=252_A) 0     21.972    3.939    -10.969   L 
 O-O_3--0.834000(PDBName=O,ResName=2,ResNum=253_A) 0     13.254   -1.679    -32.315   L 
 H-H_-0.417000(PDBName=H,ResName=2,ResNum=253_A) 0     13.755   -2.437    -32.005   L 
 H-H_-0.417000(PDBName=H,ResName=2,ResNum=253_A) 0     13.763   -0.877    -32.169   L 
 O-O_3--0.834000(PDBName=O,ResName=2,ResNum=254_A) 0     19.826    7.846     14.943   L 
 H-H_-0.417000(PDBName=H,ResName=2,ResNum=254_A) 0     19.154    7.199     15.168   L 
 H-H_-0.417000(PDBName=H,ResName=2,ResNum=254_A) 0     20.498    7.863     15.63    L 
 O-O_3--0.834000(PDBName=O,ResName=2,ResNum=255_A) 0     22.621    18.736   -2.963    L 
 H-H_-0.417000(PDBName=H,ResName=2,ResNum=255_A) 0     21.731    18.547   -3.269    L 
 H-H_-0.417000(PDBName=H,ResName=2,ResNum=255_A) 0     22.756    19.686   -2.936    L 
 O-O_3--0.834000(PDBName=O,ResName=2,ResNum=256_A) 0     5.327    -3.433     1.978    L 
 H-H_-0.417000(PDBName=H,ResName=2,ResNum=256_A) 0     5.7      -2.643     1.581    L 
 H-H_-0.417000(PDBName=H,ResName=2,ResNum=256_A) 0     4.382    -3.315     2.102    L 
 O-O_3--0.834000(PDBName=O,ResName=2,ResNum=257_A) 0     12.044   -16.99     3.58     L 
 H-H_-0.417000(PDBName=H,ResName=2,ResNum=257_A) 0     12.345   -17.866    3.329    L 
 H-H_-0.417000(PDBName=H,ResName=2,ResNum=257_A) 0     11.329   -17.066    4.217    L 
 O-O_3--0.834000(PDBName=O,ResName=2,ResNum=258_A) 0    -21.051   -9.782    -23.814   L 
 H-H_-0.417000(PDBName=H,ResName=2,ResNum=258_A) 0    -21.911   -9.442    -23.558   L 
 H-H_-0.417000(PDBName=H,ResName=2,ResNum=258_A) 0    -21.082   -10.742   -23.844   L 
 O-O_3--0.834000(PDBName=O,ResName=2,ResNum=259_A) 0    -28.689    12.148    6.563    L 
 H-H_-0.417000(PDBName=H,ResName=2,ResNum=259_A) 0    -27.838    12.529    6.334    L 
 H-H_-0.417000(PDBName=H,ResName=2,ResNum=259_A) 0    -28.555    11.342    7.067    L 
 O-O_3--0.834000(PDBName=O,ResName=2,ResNum=260_A) 0     8.844    -26.024   -8.851    L 
 H-H_-0.417000(PDBName=H,ResName=2,ResNum=260_A) 0     9.722    -25.866   -9.207    L 
 H-H_-0.417000(PDBName=H,ResName=2,ResNum=260_A) 0     8.917    -26.363   -7.956    L 
 O-O_3--0.834000(PDBName=O,ResName=2,ResNum=261_A) 0    -16.638    0.743    -8.003    L 
 H-H_-0.417000(PDBName=H,ResName=2,ResNum=261_A) 0    -16.678    0.007    -7.389    L 
 H-H_-0.417000(PDBName=H,ResName=2,ResNum=261_A) 0    -17.394    1.318    -7.865    L 
 O-O_3--0.834000(PDBName=O,ResName=2,ResNum=262_A) 0    -2.029     21.668   -14.063   L 
 H-H_-0.417000(PDBName=H,ResName=2,ResNum=262_A) 0    -1.154     22.044   -14.177   L 
 H-H_-0.417000(PDBName=H,ResName=2,ResNum=262_A) 0    -1.969     20.87    -13.531   L 
 O-O_3--0.834000(PDBName=O,ResName=2,ResNum=263_A) 0     17.908   -15.416    10.309   L 
 H-H_-0.417000(PDBName=H,ResName=2,ResNum=263_A) 0     17.161   -15.857    9.898    L 
 H-H_-0.417000(PDBName=H,ResName=2,ResNum=263_A) 0     18.284   -14.781    9.694    L 
 O-O_3--0.834000(PDBName=O,ResName=2,ResNum=264_A) 0    -9.391    -15.28     1.246    L 
 H-H_-0.417000(PDBName=H,ResName=2,ResNum=264_A) 0    -9.572    -14.398    0.914    L 
 H-H_-0.417000(PDBName=H,ResName=2,ResNum=264_A) 0    -10.193   -15.808    1.209    L 
 O-O_3--0.834000(PDBName=O,ResName=2,ResNum=265_A) 0    -16.268    3.248     30.071   L 
 H-H_-0.417000(PDBName=H,ResName=2,ResNum=265_A) 0    -16.565    4.144     30.24    L 
 H-H_-0.417000(PDBName=H,ResName=2,ResNum=265_A) 0    -15.34     3.259     29.822   L 
 O-O_3--0.834000(PDBName=O,ResName=2,ResNum=266_A) 0    -3.038     23.057    7.456    L 
 H-H_-0.417000(PDBName=H,ResName=2,ResNum=266_A) 0    -2.842     23.934    7.117    L 
 H-H_-0.417000(PDBName=H,ResName=2,ResNum=266_A) 0    -3.808     22.703    7.005    L 
 O-O_3--0.834000(PDBName=O,ResName=2,ResNum=267_A) 0     3.313     12.186   -6.735    L 
 H-H_-0.417000(PDBName=H,ResName=2,ResNum=267_A) 0     3.561     13.069   -6.451    L 
 H-H_-0.417000(PDBName=H,ResName=2,ResNum=267_A) 0     4.083     11.734   -7.088    L 
 O-O_3--0.834000(PDBName=O,ResName=2,ResNum=268_A) 0     9.789     9.603     13.618   L 
 H-H_-0.417000(PDBName=H,ResName=2,ResNum=268_A) 0     9.022     9.834     14.147   L 
 H-H_-0.417000(PDBName=H,ResName=2,ResNum=268_A) 0     9.917     8.651     13.636   L 
 O-O_3--0.834000(PDBName=O,ResName=2,ResNum=269_A) 0    -2.403    -21.031   -22.642   L 
 H-H_-0.417000(PDBName=H,ResName=2,ResNum=269_A) 0    -2.535    -20.166   -23.037   L 
 H-H_-0.417000(PDBName=H,ResName=2,ResNum=269_A) 0    -1.884    -20.942   -21.84    L 
 O-O_3--0.834000(PDBName=O,ResName=2,ResNum=270_A) 0     1.356    -17.708    29.874   L 
 H-H_-0.417000(PDBName=H,ResName=2,ResNum=270_A) 0     1.954    -17.044    30.225   L 
 H-H_-0.417000(PDBName=H,ResName=2,ResNum=270_A) 0     0.657    -17.279    29.374   L 
 O-O_3--0.834000(PDBName=O,ResName=2,ResNum=271_A) 0    -3.947     30.362    5.743    L 
 H-H_-0.417000(PDBName=H,ResName=2,ResNum=271_A) 0    -4.166     31.076    5.14     L 
 H-H_-0.417000(PDBName=H,ResName=2,ResNum=271_A) 0    -4.368     30.518    6.592    L 
 O-O_3--0.834000(PDBName=O,ResName=2,ResNum=272_A) 0     7.273    -16.649   -6.228    L 
 H-H_-0.417000(PDBName=H,ResName=2,ResNum=272_A) 0     7.989    -16.021   -6.346    L 
 H-H_-0.417000(PDBName=H,ResName=2,ResNum=272_A) 0     7.635    -17.519   -6.048    L 
 O-O_3--0.834000(PDBName=O,ResName=2,ResNum=273_A) 0    -27.674    7.112    -2.956    L 
 H-H_-0.417000(PDBName=H,ResName=2,ResNum=273_A) 0    -27.076    7.555    -2.351    L 
 H-H_-0.417000(PDBName=H,ResName=2,ResNum=273_A) 0    -28.465    7.644    -3.074    L 
 O-O_3--0.834000(PDBName=O,ResName=2,ResNum=274_A) 0    -28.748   -6.147    -4.772    L 
 H-H_-0.417000(PDBName=H,ResName=2,ResNum=274_A) 0    -28.886   -5.199    -4.708    L 
 H-H_-0.417000(PDBName=H,ResName=2,ResNum=274_A) 0    -27.808   -6.338    -4.727    L 
 O-O_3--0.834000(PDBName=O,ResName=2,ResNum=275_A) 0    -21.041    15.737   -12.368   L 
 H-H_-0.417000(PDBName=H,ResName=2,ResNum=275_A) 0    -21.233    16.645   -12.611   L 
 H-H_-0.417000(PDBName=H,ResName=2,ResNum=275_A) 0    -20.131    15.67    -12.067   L 
 O-O_3--0.834000(PDBName=O,ResName=2,ResNum=276_A) 0    -14.537   -1.007    -4.911    L 
 H-H_-0.417000(PDBName=H,ResName=2,ResNum=276_A) 0    -13.802   -0.584    -4.461    L 
 H-H_-0.417000(PDBName=H,ResName=2,ResNum=276_A) 0    -14.565   -1.937    -4.673    L 
 O-O_3--0.834000(PDBName=O,ResName=2,ResNum=277_A) 0     25.582   -22.657    4.339    L 
 H-H_-0.417000(PDBName=H,ResName=2,ResNum=277_A) 0     25.892   -23.236    3.639    L 
 H-H_-0.417000(PDBName=H,ResName=2,ResNum=277_A) 0     24.957   -22.024    3.978    L 
 O-O_3--0.834000(PDBName=O,ResName=2,ResNum=278_A) 0    -6.706    -23.174   -17.941   L 
 H-H_-0.417000(PDBName=H,ResName=2,ResNum=278_A) 0    -5.89     -22.81    -17.59    L 
 H-H_-0.417000(PDBName=H,ResName=2,ResNum=278_A) 0    -7.075    -23.801   -17.314   L 
 O-O_3--0.834000(PDBName=O,ResName=2,ResNum=279_A) 0    -0.404    -31.638   -12.829   L 
 H-H_-0.417000(PDBName=H,ResName=2,ResNum=279_A) 0    -0.7      -30.74    -12.663   L 
 H-H_-0.417000(PDBName=H,ResName=2,ResNum=279_A) 0     0.315    -31.626   -13.466   L 
 O-O_3--0.834000(PDBName=O,ResName=2,ResNum=280_A) 0    -19.367   -22.506   -7.365    L 
 H-H_-0.417000(PDBName=H,ResName=2,ResNum=280_A) 0    -19.863   -21.973   -7.991    L 
 H-H_-0.417000(PDBName=H,ResName=2,ResNum=280_A) 0    -19.089   -23.322   -7.788    L 
 O-O_3--0.834000(PDBName=O,ResName=2,ResNum=281_A) 0    -5.048     10.023   -27.676   L 
 H-H_-0.417000(PDBName=H,ResName=2,ResNum=281_A) 0    -5.118     10.516   -28.497   L 
[...]
 Angle bend  undefined between atoms  11252  11251  11253 H_-O_3-H_ [L,L,L]  
 Angle bend  undefined between atoms  11255  11254  11256 H_-O_3-H_ [L,L,L]  
 Angle bend  undefined between atoms  11258  11257  11259 H_-O_3-H_ [L,L,L]  
 Angle bend  undefined between atoms  11261  11260  11262 H_-O_3-H_ [L,L,L]  
 Angle bend  undefined between atoms  11264  11263  11265 H_-O_3-H_ [L,L,L]  
 Angle bend  undefined between atoms  11267  11266  11268 H_-O_3-H_ [L,L,L]  
 Angle bend  undefined between atoms  11270  11269  11271 H_-O_3-H_ [L,L,L]  
 Angle bend  undefined between atoms  11273  11272  11274 H_-O_3-H_ [L,L,L]  
 Angle bend  undefined between atoms  11276  11275  11277 H_-O_3-H_ [L,L,L]  
 Angle bend  undefined between atoms  11279  11278  11280 H_-O_3-H_ [L,L,L]  
 Angle bend  undefined between atoms  11282  11281  11283 H_-O_3-H_ [L,L,L]  
 Angle bend  undefined between atoms  11285  11284  11286 H_-O_3-H_ [L,L,L]  
 Angle bend  undefined between atoms  11288  11287  11289 H_-O_3-H_ [L,L,L]  
 Angle bend  undefined between atoms  11291  11290  11292 H_-O_3-H_ [L,L,L]  
 Angle bend  undefined between atoms  11294  11293  11295 H_-O_3-H_ [L,L,L]  
 Angle bend  undefined between atoms  11297  11296  11298 H_-O_3-H_ [L,L,L]  
 Angle bend  undefined between atoms  11300  11299  11301 H_-O_3-H_ [L,L,L]  
 Angle bend  undefined between atoms  11303  11302  11304 H_-O_3-H_ [L,L,L]  
 Angle bend  undefined between atoms  11306  11305  11307 H_-O_3-H_ [L,L,L]  
 Angle bend  undefined between atoms  11309  11308  11310 H_-O_3-H_ [L,L,L]  
 Angle bend  undefined between atoms  11312  11311  11313 H_-O_3-H_ [L,L,L]  
 Angle bend  undefined between atoms  11315  11314  11316 H_-O_3-H_ [L,L,L]  
 Angle bend  undefined between atoms  11318  11317  11319 H_-O_3-H_ [L,L,L]  
 Angle bend  undefined between atoms  11321  11320  11322 H_-O_3-H_ [L,L,L]  
 Angle bend  undefined between atoms  11324  11323  11325 H_-O_3-H_ [L,L,L]  
 Angle bend  undefined between atoms  11327  11326  11328 H_-O_3-H_ [L,L,L]  
 Angle bend  undefined between atoms  11330  11329  11331 H_-O_3-H_ [L,L,L]  
 Angle bend  undefined between atoms  11333  11332  11334 H_-O_3-H_ [L,L,L]  
 Angle bend  undefined between atoms  11336  11335  11337 H_-O_3-H_ [L,L,L]  
 Angle bend  undefined between atoms  11339  11338  11340 H_-O_3-H_ [L,L,L]  
 Angle bend  undefined between atoms  11342  11341  11343 H_-O_3-H_ [L,L,L]  
 Angle bend  undefined between atoms  11345  11344  11346 H_-O_3-H_ [L,L,L]  
 Angle bend  undefined between atoms  11348  11347  11349 H_-O_3-H_ [L,L,L]  
 Angle bend  undefined between atoms  11351  11350  11352 H_-O_3-H_ [L,L,L]  
 Angle bend  undefined between atoms  11354  11353  11355 H_-O_3-H_ [L,L,L]  
 Angle bend  undefined between atoms  11357  11356  11358 H_-O_3-H_ [L,L,L]  
 Angle bend  undefined between atoms  11360  11359  11361 H_-O_3-H_ [L,L,L]  
 Angle bend  undefined between atoms  11363  11362  11364 H_-O_3-H_ [L,L,L]  
 Angle bend  undefined between atoms  11366  11365  11367 H_-O_3-H_ [L,L,L]  
 Angle bend  undefined between atoms  11369  11368  11370 H_-O_3-H_ [L,L,L]  
 Angle bend  undefined between atoms  11372  11371  11373 H_-O_3-H_ [L,L,L]  
 Angle bend  undefined between atoms  11375  11374  11376 H_-O_3-H_ [L,L,L]  
 Angle bend  undefined between atoms  11378  11377  11379 H_-O_3-H_ [L,L,L]  
 Angle bend  undefined between atoms  11381  11380  11382 H_-O_3-H_ [L,L,L]  
 Angle bend  undefined between atoms  11384  11383  11385 H_-O_3-H_ [L,L,L]  
 Angle bend  undefined between atoms  11387  11386  11388 H_-O_3-H_ [L,L,L]  
 Angle bend  undefined between atoms  11390  11389  11391 H_-O_3-H_ [L,L,L]  
 Angle bend  undefined between atoms  11393  11392  11394 H_-O_3-H_ [L,L,L]  
 Angle bend  undefined between atoms  11396  11395  11397 H_-O_3-H_ [L,L,L]  
 Angle bend  undefined between atoms  11399  11398  11400 H_-O_3-H_ [L,L,L]  
 Angle bend  undefined between atoms  11402  11401  11403 H_-O_3-H_ [L,L,L]  
 Angle bend  undefined between atoms  11405  11404  11406 H_-O_3-H_ [L,L,L]  
 Angle bend  undefined between atoms  11408  11407  11409 H_-O_3-H_ [L,L,L]  
 Angle bend  undefined between atoms  11411  11410  11412 H_-O_3-H_ [L,L,L]  
 Angle bend  undefined between atoms  11414  11413  11415 H_-O_3-H_ [L,L,L]  
 Angle bend  undefined between atoms  11417  11416  11418 H_-O_3-H_ [L,L,L]  
 Angle bend  undefined between atoms  11420  11419  11421 H_-O_3-H_ [L,L,L]  
 Angle bend  undefined between atoms  11423  11422  11424 H_-O_3-H_ [L,L,L]  
 Angle bend  undefined between atoms  11426  11425  11427 H_-O_3-H_ [L,L,L]  
 Angle bend  undefined between atoms  11429  11428  11430 H_-O_3-H_ [L,L,L]  
 Angle bend  undefined between atoms  11432  11431  11433 H_-O_3-H_ [L,L,L]  
 Angle bend  undefined between atoms  11435  11434  11436 H_-O_3-H_ [L,L,L]  
 Angle bend  undefined between atoms  11438  11437  11439 H_-O_3-H_ [L,L,L]  
 Angle bend  undefined between atoms  11441  11440  11442 H_-O_3-H_ [L,L,L]  
 Angle bend  undefined between atoms  11444  11443  11445 H_-O_3-H_ [L,L,L]  
 Angle bend  undefined between atoms  11447  11446  11448 H_-O_3-H_ [L,L,L]  
 Angle bend  undefined between atoms  11450  11449  11451 H_-O_3-H_ [L,L,L]  
 Angle bend  undefined between atoms  11453  11452  11454 H_-O_3-H_ [L,L,L]  
 Angle bend  undefined between atoms  11456  11455  11457 H_-O_3-H_ [L,L,L]  
 Angle bend  undefined between atoms  11459  11458  11460 H_-O_3-H_ [L,L,L]  
 Angle bend  undefined between atoms  11462  11461  11463 H_-O_3-H_ [L,L,L]  
 Angle bend  undefined between atoms  11465  11464  11466 H_-O_3-H_ [L,L,L]  
 Angle bend  undefined between atoms  11468  11467  11469 H_-O_3-H_ [L,L,L]  
 Angle bend  undefined between atoms  11471  11470  11472 H_-O_3-H_ [L,L,L]  
 Angle bend  undefined between atoms  11474  11473  11475 H_-O_3-H_ [L,L,L]  
 Angle bend  undefined between atoms  11477  11476  11478 H_-O_3-H_ [L,L,L]  
 Angle bend  undefined between atoms  11480  11479  11481 H_-O_3-H_ [L,L,L]  
 Angle bend  undefined between atoms  11483  11482  11484 H_-O_3-H_ [L,L,L]  
 Angle bend  undefined between atoms  11486  11485  11487 H_-O_3-H_ [L,L,L]  
 Angle bend  undefined between atoms  11489  11488  11490 H_-O_3-H_ [L,L,L]  
 Angle bend  undefined between atoms  11492  11491  11493 H_-O_3-H_ [L,L,L]  
 Angle bend  undefined between atoms  11495  11494  11496 H_-O_3-H_ [L,L,L]  
 Angle bend  undefined between atoms  11498  11497  11499 H_-O_3-H_ [L,L,L]  
 Angle bend  undefined between atoms  11501  11500  11502 H_-O_3-H_ [L,L,L]  
 Angle bend  undefined between atoms  11504  11503  11505 H_-O_3-H_ [L,L,L]  
 Angle bend  undefined between atoms  11507  11506  11508 H_-O_3-H_ [L,L,L]  
 Angle bend  undefined between atoms  11510  11509  11511 H_-O_3-H_ [L,L,L]  
 Angle bend  undefined between atoms  11513  11512  11514 H_-O_3-H_ [L,L,L]  
 Angle bend  undefined between atoms  11516  11515  11517 H_-O_3-H_ [L,L,L]  
 Angle bend  undefined between atoms  11519  11518  11520 H_-O_3-H_ [L,L,L]  
 Angle bend  undefined between atoms  11522  11521  11523 H_-O_3-H_ [L,L,L]  
 Angle bend  undefined between atoms  11525  11524  11526 H_-O_3-H_ [L,L,L]  
 Angle bend  undefined between atoms  11528  11527  11529 H_-O_3-H_ [L,L,L]  
 Angle bend  undefined between atoms  11531  11530  11532 H_-O_3-H_ [L,L,L]  
 Angle bend  undefined between atoms  11534  11533  11535 H_-O_3-H_ [L,L,L]  
 Angle bend  undefined between atoms  11537  11536  11538 H_-O_3-H_ [L,L,L]  
 Angle bend  undefined between atoms  11540  11539  11541 H_-O_3-H_ [L,L,L]  
 Angle bend  undefined between atoms  11543  11542  11544 H_-O_3-H_ [L,L,L]  
 Angle bend  undefined between atoms  11546  11545  11547 H_-O_3-H_ [L,L,L]  
 Angle bend  undefined between atoms  11549  11548  11550 H_-O_3-H_ [L,L,L]  
 Angle bend  undefined between atoms  11552  11551  11553 H_-O_3-H_ [L,L,L]  
 Angle bend  undefined between atoms  11555  11554  11556 H_-O_3-H_ [L,L,L]  
 Angle bend  undefined between atoms  11558  11557  11559 H_-O_3-H_ [L,L,L]  
 Angle bend  undefined between atoms  11561  11560  11562 H_-O_3-H_ [L,L,L]  
 Angle bend  undefined between atoms  11564  11563  11565 H_-O_3-H_ [L,L,L]  
 Angle bend  undefined between atoms  11567  11566  11568 H_-O_3-H_ [L,L,L]  
 Angle bend  undefined between atoms  11570  11569  11571 H_-O_3-H_ [L,L,L]  
 Angle bend  undefined between atoms  11573  11572  11574 H_-O_3-H_ [L,L,L]  
 Angle bend  undefined between atoms  11576  11575  11577 H_-O_3-H_ [L,L,L]  
 Angle bend  undefined between atoms  11579  11578  11580 H_-O_3-H_ [L,L,L]  
 Angle bend  undefined between atoms  11582  11581  11583 H_-O_3-H_ [L,L,L]  
 Angle bend  undefined between atoms  11585  11584  11586 H_-O_3-H_ [L,L,L]  
 Angle bend  undefined between atoms  11588  11587  11589 H_-O_3-H_ [L,L,L]  
 Angle bend  undefined between atoms  11591  11590  11592 H_-O_3-H_ [L,L,L]  
 Angle bend  undefined between atoms  11594  11593  11595 H_-O_3-H_ [L,L,L]  
 Angle bend  undefined between atoms  11597  11596  11598 H_-O_3-H_ [L,L,L]  
 Angle bend  undefined between atoms  11600  11599  11601 H_-O_3-H_ [L,L,L]  
 Angle bend  undefined between atoms  11603  11602  11604 H_-O_3-H_ [L,L,L]  
 Angle bend  undefined between atoms  11606  11605  11607 H_-O_3-H_ [L,L,L]  
 Angle bend  undefined between atoms  11609  11608  11610 H_-O_3-H_ [L,L,L]  
 Angle bend  undefined between atoms  11612  11611  11613 H_-O_3-H_ [L,L,L]  
 Angle bend  undefined between atoms  11615  11614  11616 H_-O_3-H_ [L,L,L]  
 Angle bend  undefined between atoms  11618  11617  11619 H_-O_3-H_ [L,L,L]  
 Angle bend  undefined between atoms  11621  11620  11622 H_-O_3-H_ [L,L,L]  
 Angle bend  undefined between atoms  11624  11623  11625 H_-O_3-H_ [L,L,L]  
 Angle bend  undefined between atoms  11627  11626  11628 H_-O_3-H_ [L,L,L]  
 Angle bend  undefined between atoms  11630  11629  11631 H_-O_3-H_ [L,L,L]  
 Angle bend  undefined between atoms  11633  11632  11634 H_-O_3-H_ [L,L,L]  
 Angle bend  undefined between atoms  11636  11635  11637 H_-O_3-H_ [L,L,L]  
 Angle bend  undefined between atoms  11639  11638  11640 H_-O_3-H_ [L,L,L]  
 Angle bend  undefined between atoms  11642  11641  11643 H_-O_3-H_ [L,L,L]  
 Angle bend  undefined between atoms  11645  11644  11646 H_-O_3-H_ [L,L,L]  
 Angle bend  undefined between atoms  11648  11647  11649 H_-O_3-H_ [L,L,L]  
 Angle bend  undefined between atoms  11651  11650  11652 H_-O_3-H_ [L,L,L]  
 Angle bend  undefined between atoms  11654  11653  11655 H_-O_3-H_ [L,L,L]  
 Angle bend  undefined between atoms  11657  11656  11658 H_-O_3-H_ [L,L,L]  
 Angle bend  undefined between atoms  11660  11659  11661 H_-O_3-H_ [L,L,L]  
 Angle bend  undefined between atoms  11663  11662  11664 H_-O_3-H_ [L,L,L]  
 Angle bend  undefined between atoms  11666  11665  11667 H_-O_3-H_ [L,L,L]  
 Angle bend  undefined between atoms  11669  11668  11670 H_-O_3-H_ [L,L,L]  
 Angle bend  undefined between atoms  11672  11671  11673 H_-O_3-H_ [L,L,L]  
 Angle bend  undefined between atoms  11675  11674  11676 H_-O_3-H_ [L,L,L]  
 Angle bend  undefined between atoms  11678  11677  11679 H_-O_3-H_ [L,L,L]  
 Angle bend  undefined between atoms  11681  11680  11682 H_-O_3-H_ [L,L,L]  
 Angle bend  undefined between atoms  11684  11683  11685 H_-O_3-H_ [L,L,L]  
 Angle bend  undefined between atoms  11687  11686  11688 H_-O_3-H_ [L,L,L]  
 Angle bend  undefined between atoms  11690  11689  11691 H_-O_3-H_ [L,L,L]  
 Angle bend  undefined between atoms  11693  11692  11694 H_-O_3-H_ [L,L,L]  
 Angle bend  undefined between atoms  11696  11695  11697 H_-O_3-H_ [L,L,L]  
 Angle bend  undefined between atoms  11699  11698  11700 H_-O_3-H_ [L,L,L]  
 Angle bend  undefined between atoms  11702  11701  11703 H_-O_3-H_ [L,L,L]  
 Angle bend  undefined between atoms  11705  11704  11706 H_-O_3-H_ [L,L,L]  
 Angle bend  undefined between atoms  11708  11707  11709 H_-O_3-H_ [L,L,L]  
 Angle bend  undefined between atoms  11711  11710  11712 H_-O_3-H_ [L,L,L]  
 Angle bend  undefined between atoms  11714  11713  11715 H_-O_3-H_ [L,L,L]  
 Angle bend  undefined between atoms  11717  11716  11718 H_-O_3-H_ [L,L,L]  
 Angle bend  undefined between atoms  11720  11719  11721 H_-O_3-H_ [L,L,L]  
 Angle bend  undefined between atoms  11723  11722  11724 H_-O_3-H_ [L,L,L]  
 Angle bend  undefined between atoms  11726  11725  11727 H_-O_3-H_ [L,L,L]  
 Angle bend  undefined between atoms  11729  11728  11730 H_-O_3-H_ [L,L,L]  
 Angle bend  undefined between atoms  11732  11731  11733 H_-O_3-H_ [L,L,L]  
 Angle bend  undefined between atoms  11735  11734  11736 H_-O_3-H_ [L,L,L]  
 Angle bend  undefined between atoms  11738  11737  11739 H_-O_3-H_ [L,L,L]  
 Angle bend  undefined between atoms  11741  11740  11742 H_-O_3-H_ [L,L,L]  
 Angle bend  undefined between atoms  11744  11743  11745 H_-O_3-H_ [L,L,L]  
 Angle bend  undefined between atoms  11747  11746  11748 H_-O_3-H_ [L,L,L]  
 Angle bend  undefined between atoms  11750  11749  11751 H_-O_3-H_ [L,L,L]  
 Angle bend  undefined between atoms  11753  11752  11754 H_-O_3-H_ [L,L,L]  
 Angle bend  undefined between atoms  11756  11755  11757 H_-O_3-H_ [L,L,L]  
 Angle bend  undefined between atoms  11759  11758  11760 H_-O_3-H_ [L,L,L]  
 Angle bend  undefined between atoms  11762  11761  11763 H_-O_3-H_ [L,L,L]  
 Angle bend  undefined between atoms  11765  11764  11766 H_-O_3-H_ [L,L,L]  
 Angle bend  undefined between atoms  11768  11767  11769 H_-O_3-H_ [L,L,L]  
 Angle bend  undefined between atoms  11771  11770  11772 H_-O_3-H_ [L,L,L]  
 Angle bend  undefined between atoms  11774  11773  11775 H_-O_3-H_ [L,L,L]  
 Angle bend  undefined between atoms  11777  11776  11778 H_-O_3-H_ [L,L,L]  
 Angle bend  undefined between atoms  11780  11779  11781 H_-O_3-H_ [L,L,L]  
 Angle bend  undefined between atoms  11783  11782  11784 H_-O_3-H_ [L,L,L]  
 Angle bend  undefined between atoms  11786  11785  11787 H_-O_3-H_ [L,L,L]  
 Angle bend  undefined between atoms  11789  11788  11790 H_-O_3-H_ [L,L,L]  
 Angle bend  undefined between atoms  11792  11791  11793 H_-O_3-H_ [L,L,L]  
 Angle bend  undefined between atoms  11795  11794  11796 H_-O_3-H_ [L,L,L]  
 Angle bend  undefined between atoms  11798  11797  11799 H_-O_3-H_ [L,L,L]  
 Angle bend  undefined between atoms  11801  11800  11802 H_-O_3-H_ [L,L,L]  
 Angle bend  undefined between atoms  11804  11803  11805 H_-O_3-H_ [L,L,L]  
 Angle bend  undefined between atoms  11807  11806  11808 H_-O_3-H_ [L,L,L]  
 Angle bend  undefined between atoms  11810  11809  11811 H_-O_3-H_ [L,L,L]  
 Angle bend  undefined between atoms  11813  11812  11814 H_-O_3-H_ [L,L,L]  
 Angle bend  undefined between atoms  11816  11815  11817 H_-O_3-H_ [L,L,L]  
 Angle bend  undefined between atoms  11819  11818  11820 H_-O_3-H_ [L,L,L]  
 Angle bend  undefined between atoms  11822  11821  11823 H_-O_3-H_ [L,L,L]  
 Angle bend  undefined between atoms  11825  11824  11826 H_-O_3-H_ [L,L,L]  
 Angle bend  undefined between atoms  11828  11827  11829 H_-O_3-H_ [L,L,L]  
 Angle bend  undefined between atoms  11831  11830  11832 H_-O_3-H_ [L,L,L]  
 Angle bend  undefined between atoms  11834  11833  11835 H_-O_3-H_ [L,L,L]  
 Angle bend  undefined between atoms  11837  11836  11838 H_-O_3-H_ [L,L,L]  
 Angle bend  undefined between atoms  11840  11839  11841 H_-O_3-H_ [L,L,L]  
 Angle bend  undefined between atoms  11843  11842  11844 H_-O_3-H_ [L,L,L]  
 Angle bend  undefined between atoms  11846  11845  11847 H_-O_3-H_ [L,L,L]  
 Angle bend  undefined between atoms  11849  11848  11850 H_-O_3-H_ [L,L,L]  
 Angle bend  undefined between atoms  11852  11851  11853 H_-O_3-H_ [L,L,L]  
 Angle bend  undefined between atoms  11855  11854  11856 H_-O_3-H_ [L,L,L]  
 Angle bend  undefined between atoms  11858  11857  11859 H_-O_3-H_ [L,L,L]  
 Angle bend  undefined between atoms  11861  11860  11862 H_-O_3-H_ [L,L,L]  
 Angle bend  undefined between atoms  11864  11863  11865 H_-O_3-H_ [L,L,L]  
 Angle bend  undefined between atoms  11867  11866  11868 H_-O_3-H_ [L,L,L]  
 Angle bend  undefined between atoms  11870  11869  11871 H_-O_3-H_ [L,L,L]  
 Angle bend  undefined between atoms  11873  11872  11874 H_-O_3-H_ [L,L,L]  
 Angle bend  undefined between atoms  11876  11875  11877 H_-O_3-H_ [L,L,L]  
 Angle bend  undefined between atoms  11879  11878  11880 H_-O_3-H_ [L,L,L]  
 Angle bend  undefined between atoms  11882  11881  11883 H_-O_3-H_ [L,L,L]  
 Angle bend  undefined between atoms  11885  11884  11886 H_-O_3-H_ [L,L,L]  
 Angle bend  undefined between atoms  11888  11887  11889 H_-O_3-H_ [L,L,L]  
 Angle bend  undefined between atoms  11891  11890  11892 H_-O_3-H_ [L,L,L]  
 Angle bend  undefined between atoms  11894  11893  11895 H_-O_3-H_ [L,L,L]  
 Angle bend  undefined between atoms  11897  11896  11898 H_-O_3-H_ [L,L,L]  
 Angle bend  undefined between atoms  11900  11899  11901 H_-O_3-H_ [L,L,L]  
 Angle bend  undefined between atoms  11903  11902  11904 H_-O_3-H_ [L,L,L]  
 Angle bend  undefined between atoms  11906  11905  11907 H_-O_3-H_ [L,L,L]  
 Angle bend  undefined between atoms  11909  11908  11910 H_-O_3-H_ [L,L,L]  
 Angle bend  undefined between atoms  11912  11911  11913 H_-O_3-H_ [L,L,L]  
 Angle bend  undefined between atoms  11915  11914  11916 H_-O_3-H_ [L,L,L]  
 Angle bend  undefined between atoms  11918  11917  11919 H_-O_3-H_ [L,L,L]  
 Angle bend  undefined between atoms  11921  11920  11922 H_-O_3-H_ [L,L,L]  
 Angle bend  undefined between atoms  11924  11923  11925 H_-O_3-H_ [L,L,L]  
 Angle bend  undefined between atoms  11927  11926  11928 H_-O_3-H_ [L,L,L]  
 Angle bend  undefined between atoms  11930  11929  11931 H_-O_3-H_ [L,L,L]  
 Angle bend  undefined between atoms  11933  11932  11934 H_-O_3-H_ [L,L,L]  
 Angle bend  undefined between atoms  11936  11935  11937 H_-O_3-H_ [L,L,L]  
 Angle bend  undefined between atoms  11939  11938  11940 H_-O_3-H_ [L,L,L]  
 Angle bend  undefined between atoms  11942  11941  11943 H_-O_3-H_ [L,L,L]  
 Angle bend  undefined between atoms  11945  11944  11946 H_-O_3-H_ [L,L,L]  
 Angle bend  undefined between atoms  11948  11947  11949 H_-O_3-H_ [L,L,L]  
 Angle bend  undefined between atoms  11951  11950  11952 H_-O_3-H_ [L,L,L]  
 Angle bend  undefined between atoms  11954  11953  11955 H_-O_3-H_ [L,L,L]  
 Angle bend  undefined between atoms  11957  11956  11958 H_-O_3-H_ [L,L,L]  
 Angle bend  undefined between atoms  11960  11959  11961 H_-O_3-H_ [L,L,L]  
 Angle bend  undefined between atoms  11963  11962  11964 H_-O_3-H_ [L,L,L]  
 Angle bend  undefined between atoms  11966  11965  11967 H_-O_3-H_ [L,L,L]  
 Angle bend  undefined between atoms  11969  11968  11970 H_-O_3-H_ [L,L,L]  
 Angle bend  undefined between atoms  11972  11971  11973 H_-O_3-H_ [L,L,L]  
 Angle bend  undefined between atoms  11975  11974  11976 H_-O_3-H_ [L,L,L]  
 Angle bend  undefined between atoms  11978  11977  11979 H_-O_3-H_ [L,L,L]  
 Angle bend  undefined between atoms  11981  11980  11982 H_-O_3-H_ [L,L,L]  
 Angle bend  undefined between atoms  11984  11983  11985 H_-O_3-H_ [L,L,L]  
 Angle bend  undefined between atoms  11987  11986  11988 H_-O_3-H_ [L,L,L]  
 Angle bend  undefined between atoms  11990  11989  11991 H_-O_3-H_ [L,L,L]  
 Angle bend  undefined between atoms  11993  11992  11994 H_-O_3-H_ [L,L,L]  
 Angle bend  undefined between atoms  11996  11995  11997 H_-O_3-H_ [L,L,L]  
 Angle bend  undefined between atoms  11999  11998  12000 H_-O_3-H_ [L,L,L]  
 Angle bend  undefined between atoms  12002  12001  12003 H_-O_3-H_ [L,L,L]  
 Angle bend  undefined between atoms  12005  12004  12006 H_-O_3-H_ [L,L,L]  
 * These undefined terms cancel in the ONIOM expression.
 MM function not complete
 Error termination via Lnk1e in /opt/g09_D01_em64t/g09/l101.exe at Thu Apr  2 14:20:41 2015.
 Job cpu time:       0 days  0 hours  0 minutes 16.6 seconds.
 File lengths (MBytes):  RWF=      5 Int=      0 D2E=      0 Chk=      1 Scr=      1
