 Entering Gaussian System, Link 0=g09
 Input=opt.gjf
 Output=opt.log
 Initial command:
 /opt/g09_D01_em64t/g09/l1.exe "/tmp/Gau-30688.inp" -scrdir="/tmp/"
 Entering Link 1 = /opt/g09_D01_em64t/g09/l1.exe PID=     30689.
  
 Copyright (c) 1988,1990,1992,1993,1995,1998,2003,2009,2013,
            Gaussian, Inc.  All Rights Reserved.
  
 This is part of the Gaussian(R) 09 program.  It is based on
 the Gaussian(R) 03 system (copyright 2003, Gaussian, Inc.),
 the Gaussian(R) 98 system (copyright 1998, Gaussian, Inc.),
 the Gaussian(R) 94 system (copyright 1995, Gaussian, Inc.),
 the Gaussian 92(TM) system (copyright 1992, Gaussian, Inc.),
 the Gaussian 90(TM) system (copyright 1990, Gaussian, Inc.),
 the Gaussian 88(TM) system (copyright 1988, Gaussian, Inc.),
 the Gaussian 86(TM) system (copyright 1986, Carnegie Mellon
 University), and the Gaussian 82(TM) system (copyright 1983,
 Carnegie Mellon University). Gaussian is a federally registered
 trademark of Gaussian, Inc.
  
 This software contains proprietary and confidential information,
 including trade secrets, belonging to Gaussian, Inc.
  
 This software is provided under written license and may be
 used, copied, transmitted, or stored only in accord with that
 written license.
  
 The following legend is applicable only to US Government
 contracts under FAR:
  
                    RESTRICTED RIGHTS LEGEND
  
 Use, reproduction and disclosure by the US Government is
 subject to restrictions as set forth in subparagraphs (a)
 and (c) of the Commercial Computer Software - Restricted
 Rights clause in FAR 52.227-19.
  
 Gaussian, Inc.
 340 Quinnipiac St., Bldg. 40, Wallingford CT 06492
  
  
 ---------------------------------------------------------------
 Warning -- This program may not be used in any manner that
 competes with the business of Gaussian, Inc. or will provide
 assistance to any competitor of Gaussian, Inc.  The licensee
 of this program is prohibited from giving any competitor of
 Gaussian, Inc. access to this program.  By using this program,
 the user acknowledges that Gaussian, Inc. is engaged in the
 business of creating and licensing software in the field of
 computational chemistry and represents and warrants to the
 licensee that it is not a competitor of Gaussian, Inc. and that
 it will not use this program in any manner prohibited above.
 ---------------------------------------------------------------
  

 Cite this work as:
 Gaussian 09, Revision D.01,
 M. J. Frisch, G. W. Trucks, H. B. Schlegel, G. E. Scuseria, 
 M. A. Robb, J. R. Cheeseman, G. Scalmani, V. Barone, B. Mennucci, 
 G. A. Petersson, H. Nakatsuji, M. Caricato, X. Li, H. P. Hratchian, 
 A. F. Izmaylov, J. Bloino, G. Zheng, J. L. Sonnenberg, M. Hada, 
 M. Ehara, K. Toyota, R. Fukuda, J. Hasegawa, M. Ishida, T. Nakajima, 
 Y. Honda, O. Kitao, H. Nakai, T. Vreven, J. A. Montgomery, Jr., 
 J. E. Peralta, F. Ogliaro, M. Bearpark, J. J. Heyd, E. Brothers, 
 K. N. Kudin, V. N. Staroverov, T. Keith, R. Kobayashi, J. Normand, 
 K. Raghavachari, A. Rendell, J. C. Burant, S. S. Iyengar, J. Tomasi, 
 M. Cossi, N. Rega, J. M. Millam, M. Klene, J. E. Knox, J. B. Cross, 
 V. Bakken, C. Adamo, J. Jaramillo, R. Gomperts, R. E. Stratmann, 
 O. Yazyev, A. J. Austin, R. Cammi, C. Pomelli, J. W. Ochterski, 
 R. L. Martin, K. Morokuma, V. G. Zakrzewski, G. A. Voth, 
 P. Salvador, J. J. Dannenberg, S. Dapprich, A. D. Daniels, 
 O. Farkas, J. B. Foresman, J. V. Ortiz, J. Cioslowski, 
 and D. J. Fox, Gaussian, Inc., Wallingford CT, 2013.
 
 ******************************************
 Gaussian 09:  EM64L-G09RevD.01 24-Apr-2013
                31-Mar-2015 
 ******************************************
 %chk=opt.chk
 %mem=1GB
 %nproc=2
 Will use up to    2 processors via shared memory.
 ----------------------------------------------------------------------
 # opt ONIOM(b3lyp/6-31g(d,p):amber)=(EmbedCharge,inputfiles) nosymm ge
 om=connectivity pop=full
 ----------------------------------------------------------------------
 1/14=-1,18=3000020,19=15,38=1,52=2012,56=2,57=2,61=3,64=3,74=500/1,3;
 2/9=110,12=2,15=1,17=6,18=5,40=1/2;
 1/14=-1,18=3000020,19=15,38=1,52=2012,53=3172,61=3,64=3,74=500,118=1,128=2/20;
 3/5=30,11=9,16=1,25=1,30=1,41=10300000,43=2,71=1/1;
 4/20=11,22=1,24=3/2;
 7/7=1,30=1,33=-1,44=-1,93=3/16;
 1/14=-1,18=3000020,19=15,26=1,52=2012,53=2032,61=3,74=500,118=1,128=2/20;
 3/5=1,6=6,7=101,11=2,16=1,25=1,30=1,71=1,74=-5/1,2,3;
 4//1;
 5/5=2,38=5/2;
 6/7=3,15=8,20=41,22=-1,28=1/1,2;
 7/7=1,30=1,33=-1,93=3/1,2,3,16;
 1/14=-1,18=3000020,19=15,52=2012,53=1022,61=3,64=3,74=500,118=1,128=2/20;
 3/5=30,11=9,16=1,25=1,30=1,41=10300000,43=2,71=1/1;
 4/20=11,22=1,24=3/2;
 7/7=1,30=1,33=-1,44=-1,93=3/16;
 1/14=-1,18=3000020,19=15,52=2012,53=3015,61=3,64=3,74=500,128=2/20(-15);
 7/9=1,44=-1,93=3/16;
 1/14=-1,18=3000020,19=15,52=2012,61=3,64=3,74=500/3(2);
 2/9=110,15=1/2;
 99//99;
 2/9=110,15=1/2;
 1/14=-1,18=3000020,19=15,52=2012,53=3173,61=3,64=3,74=500,118=1/20;
 3/5=30,11=9,16=1,25=1,30=1,41=10300000,43=2,71=1/1;
 4/16=2,20=11,22=1,24=3/2;
 7/7=1,30=1,33=-1,44=-1,93=3/16;
 1/14=-1,18=3000020,19=15,26=1,52=2012,53=2033,61=3,74=500,118=1/20;
 3/5=1,6=6,7=101,11=2,16=1,25=1,30=1,71=1,74=-5/1,2,3;
 4/5=5,16=3,69=1/1;
 5/5=2,38=5/2;
 6/7=3,15=8,20=41,22=-1,28=1/1,2;
 7/7=1,30=1,33=-1,93=3/1,2,3,16;
 1/14=-1,18=3000020,19=15,52=2012,53=1023,61=3,64=3,74=500,118=1/20;
 3/5=30,11=9,16=1,25=1,30=1,41=10300000,43=2,71=1/1;
 4/16=2,20=11,22=1,24=3/2;
 7/7=1,30=1,33=-1,44=-1,93=3/16;
 1/14=-1,18=3000020,19=15,52=2012,53=3015,61=3,64=3,74=500/20(-15);
 7/9=1,44=-1,93=3/16;
 1/14=-1,18=3000020,19=15,52=2012,61=3,64=3,74=500/3(-17);
 2/9=110,15=1/2;
 99//99;
 ONIOM: restoring gridpoint  3 on chk file.
 -------------------
 Title Card Required
 -------------------
 Symbolic Z-matrix:
 Charge =  1 Multiplicity = 1 for low   level calculation on real  system.
 Charge =  1 Multiplicity = 1 for high  level calculation on model system.
 Charge =  1 Multiplicity = 1 for low   level calculation on model system.
 C-CM                 0     2.35488   0.76971  -1.67712  H 
 H-H1                 0     2.30936   1.30206  -0.75007  H 
 H-H1                 0     2.29044   1.30168  -2.60327  H 
 N-N3                 0     2.50597  -0.69251  -1.67836  H 
 H-H                  0     2.07968  -1.07236  -0.85739  H 
 H-H                  0     2.06301  -1.0727   -2.4903   H 
 O-OW                 0     3.76319  -2.456    -1.8305   L 
 H-HW                 0     4.72319  -2.45576  -1.8305   L 
 H-HW                 0     3.44296  -1.55099  -1.8305   L 
 O-OW                 0     5.29253   0.09242  -2.54372  L 
 H-HW                 0     6.25253   0.09266  -2.54372  L 
 H-HW                 0     4.9723    0.99743  -2.54372  L 
 O-OW                 0     3.08538   3.26063  -2.43516  L 
 H-HW                 0     4.04538   3.26087  -2.43516  L 
 H-HW                 0     2.76515   4.16565  -2.43516  L 
 O-OW                 0     0.42724   2.49848  -1.5732   L 
 H-HW                 0     1.38724   2.49872  -1.5732   L 
 H-HW                 0     0.10701   3.40349  -1.5732   L 
 O-OW                 0     0.53669  -0.55649  -1.10734  L 
 H-HW                 0     1.49669  -0.55624  -1.10734  L 
 H-HW                 0     0.21646   0.34853  -1.10734  L 
 O-OW                 0     3.3496    0.45031   0.4692   L 
 H-HW                 0     4.3096    0.45056   0.4692   L 
 H-HW                 0     3.02938   1.35533   0.4692   L 
 O-OW                 0     0.22759  -0.68908  -3.79175  L 
 H-HW                 0     1.18759  -0.68883  -3.79175  L 
 H-HW                 0    -0.09264   0.21594  -3.79175  L 
 O-OW                 0     2.62912  -0.02516  -4.79777  L 
 H-HW                 0     3.58912  -0.02491  -4.79777  L 
 H-HW                 0     2.30889   0.87986  -4.79777  L 
 O-OW                 0     0.77822   0.71613   1.62526  L 
 H-HW                 0     1.73822   0.71637   1.62526  L 
 H-HW                 0     0.45799   1.62115   1.62526  L 
 O-OW                 0     6.20367   0.89016  -0.54822  L 
 H-HW                 0     7.16367   0.89041  -0.54822  L 
 H-HW                 0     5.88344   1.79518  -0.54822  L 
 O-OW                 0     5.59843   0.2595   -4.76495  L 
 H-HW                 0     6.55843   0.25974  -4.76495  L 
 H-HW                 0     5.2782    1.16452  -4.76495  L 
 O-OW                 0    -1.13029   0.23749  -0.79303  L 
 H-HW                 0    -0.17029   0.23773  -0.79303  L 
 H-HW                 0    -1.45052   1.1425   -0.79303  L 
 
 Include all MM classes
 Bondstretch undefined between atoms      1      2 CM-H1 [H,H] *
 Bondstretch undefined between atoms      1      3 CM-H1 [H,H] *
 Bondstretch undefined between atoms      1      4 CM-N3 [H,H] *
 Angle bend  undefined between atoms      1      4      5 CM-N3-H [H,H,H] *
 Angle bend  undefined between atoms      1      4      6 CM-N3-H [H,H,H] *
 Angle bend  undefined between atoms      2      1      3 H1-CM-H1 [H,H,H] *
 Angle bend  undefined between atoms      2      1      4 H1-CM-N3 [H,H,H] *
 Angle bend  undefined between atoms      3      1      4 H1-CM-N3 [H,H,H] *
 * These undefined terms cancel in the ONIOM expression.

 MM sanity checks:
 All charges sum to:                0.00000000
 Charges of atoms sum to:           0.00000000
 Layer 1 (S) has      6 atoms and charge   0.00000000 sum=   0.00000000
 Layer 2 (R) adds    36 atoms and charge   0.00000000 sum=   0.00000000
 MMInit generated parameter data with length LenPar=        2293.

 GradGradGradGradGradGradGradGradGradGradGradGradGradGradGradGradGradGrad
 Berny optimization.
 Initialization pass.
                           ----------------------------
                           !    Initial Parameters    !
                           ! (Angstroms and Degrees)  !
 --------------------------                            --------------------------
 ! Name  Definition              Value          Derivative Info.                !
 --------------------------------------------------------------------------------
 ! R1    R(1,2)                  1.07           estimate D2E/DX2                !
 ! R2    R(1,3)                  1.07           estimate D2E/DX2                !
 ! R3    R(1,4)                  1.47           estimate D2E/DX2                !
 ! R4    R(4,5)                  1.0            estimate D2E/DX2                !
 ! R5    R(4,6)                  1.0            estimate D2E/DX2                !
 ! A1    A(2,1,3)              120.0            estimate D2E/DX2                !
 ! A2    A(2,1,4)              120.0            estimate D2E/DX2                !
 ! A3    A(3,1,4)              120.0            estimate D2E/DX2                !
 ! A4    A(1,4,5)              109.4712         estimate D2E/DX2                !
 ! A5    A(1,4,6)              109.4712         estimate D2E/DX2                !
 ! A6    A(5,4,6)              109.4712         estimate D2E/DX2                !
 ! D1    D(2,1,4,5)             30.0            estimate D2E/DX2                !
 ! D2    D(2,1,4,6)            150.0            estimate D2E/DX2                !
 ! D3    D(3,1,4,5)           -150.0            estimate D2E/DX2                !
 ! D4    D(3,1,4,6)            -30.0            estimate D2E/DX2                !
 --------------------------------------------------------------------------------
 Trust Radius=3.00D-01 FncErr=1.00D-07 GrdErr=1.00D-07
 Number of steps in this run=     25 maximum allowed number of steps=    100.
 GradGradGradGradGradGradGradGradGradGradGradGradGradGradGradGradGradGrad

                          Input orientation:                          
 ---------------------------------------------------------------------
 Center     Atomic      Atomic             Coordinates (Angstroms)
 Number     Number       Type             X           Y           Z
 ---------------------------------------------------------------------
      1          6    20001004        2.354884    0.769706   -1.677119
      2          1    20001035        2.309356    1.302063   -0.750068
      3          1    20001035        2.290439    1.301683   -2.603266
      4          7    20001020        2.505968   -0.692509   -1.678361
      5          1    20001029        2.079678   -1.072360   -0.857392
      6          1    20001029        2.063009   -1.072696   -2.490301
      7          8    20001021        3.763188   -2.456002   -1.830502
      8          1    20001030        4.723188   -2.455761   -1.830502
      9          1    20001030        3.442961   -1.550986   -1.830502
     10          8    20001021        5.292528    0.092416   -2.543725
     11          1    20001030        6.252528    0.092658   -2.543725
     12          1    20001030        4.972301    0.997433   -2.543725
     13          8    20001021        3.085382    3.260630   -2.435159
     14          1    20001030        4.045382    3.260871   -2.435159
     15          1    20001030        2.765155    4.165647   -2.435159
     16          8    20001021        0.427242    2.498478   -1.573202
     17          1    20001030        1.387241    2.498719   -1.573202
     18          1    20001030        0.107014    3.403495   -1.573202
     19          8    20001021        0.536689   -0.556486   -1.107341
     20          1    20001030        1.496689   -0.556245   -1.107341
     21          1    20001030        0.216461    0.348530   -1.107341
     22          8    20001021        3.349604    0.450315    0.469197
     23          1    20001030        4.309604    0.450556    0.469197
     24          1    20001030        3.029377    1.355331    0.469197
     25          8    20001021        0.227591   -0.689076   -3.791750
     26          1    20001030        1.187591   -0.688835   -3.791750
     27          1    20001030       -0.092637    0.215941   -3.791750
     28          8    20001021        2.629119   -0.025155   -4.797768
     29          1    20001030        3.589119   -0.024914   -4.797768
     30          1    20001030        2.308892    0.879861   -4.797768
     31          8    20001021        0.778222    0.716129    1.625261
     32          1    20001030        1.738222    0.716370    1.625261
     33          1    20001030        0.457995    1.621145    1.625261
     34          8    20001021        6.203671    0.890164   -0.548217
     35          1    20001030        7.163671    0.890405   -0.548217
     36          1    20001030        5.883444    1.795180   -0.548217
     37          8    20001021        5.598427    0.259500   -4.764947
     38          1    20001030        6.558427    0.259741   -4.764947
     39          1    20001030        5.278200    1.164516   -4.764947
     40          8    20001021       -1.130291    0.237487   -0.793034
     41          1    20001030       -0.170291    0.237729   -0.793034
     42          1    20001030       -1.450518    1.142504   -0.793034
 ---------------------------------------------------------------------
                    Distance matrix (angstroms):
                    1          2          3          4          5
     1  C    0.000000
     2  H    1.070000   0.000000
     3  H    1.070000   1.853294   0.000000
     4  N    1.470000   2.208778   2.208778   0.000000
     5  H    2.034920   2.387919   2.954416   1.000000   0.000000
     6  H    2.034920   2.954416   2.387919   1.000000   1.632993
     7  O    3.523073   4.171812   4.109300   2.171096   2.386548
     8  H    4.004501   4.595124   4.542446   2.836948   3.138293
     9  H    2.567693   3.254579   3.172253   1.279877   1.742000
    10  O    3.136795   3.685073   3.237037   3.021569   3.810883
    11  H    4.049819   4.497607   4.142878   3.924545   4.649050
    12  H    2.766539   3.225102   2.699722   3.112484   3.936373
    13  O    2.704247   2.697727   2.120771   4.066420   4.719703
    14  H    3.104563   3.112916   2.635622   4.309496   5.013007
    15  H    3.503621   3.353713   2.907904   4.923575   5.513252
    16  O    2.591381   2.377249   2.442305   3.809798   3.999227
    17  H    1.984091   1.720416   1.819256   3.383274   3.707353
    18  H    3.464182   3.153391   3.200936   4.747976   4.943386
    19  O    2.321479   2.593106   2.960781   2.054903   1.646030
    20  H    1.679075   2.059461   2.513907   1.167594   0.817756
    21  H    2.252751   2.327461   2.729043   2.579082   2.356476
    22  O    2.387081   1.814993   3.359567   2.574835   2.385602
    23  H    2.920525   2.492522   3.773788   3.028483   3.008602
    24  H    2.324773   1.416995   3.160528   3.013240   2.924971
    25  O    3.335429   4.189297   3.103378   3.107640   3.491073
    26  H    2.821627   3.804453   2.567280   2.490892   3.090852
    27  H    3.281566   4.025054   2.875827   3.470510   3.871579
    28  O    3.231944   4.271725   2.586705   3.192370   4.114011
    29  H    3.448654   4.447757   2.874417   3.368917   4.347657
    30  H    3.122932   4.069660   2.234752   3.498841   4.403438
    31  O    3.659842   2.886153   4.528809   3.985384   3.325064
    32  H    3.359885   2.512254   4.304413   3.672641   3.078915
    33  H    3.902416   3.028455   4.619561   4.523395   4.006045
    34  O    4.012742   3.921237   4.439140   4.177929   4.577599
    35  H    4.940994   4.875919   5.304787   5.047479   5.458482
    36  H    3.844054   3.613587   4.168507   4.344326   4.773575
    37  O    4.507279   5.293787   4.086783   4.471760   5.424429
    38  H    5.240661   5.938038   4.896349   5.182299   6.091197
    39  H    4.270402   4.995218   3.690311   4.545418   5.522965
    40  O    3.634737   3.600881   4.013832   3.856303   3.467527
    41  H    2.727841   2.698760   3.234831   2.968418   2.604388
    42  H    3.924496   3.763504   4.158971   4.450265   4.167979
                    6          7          8          9         10
     6  H    0.000000
     7  O    2.288991   0.000000
     8  H    3.069976   0.960000   0.000000
     9  H    1.602611   0.960000   1.567674   0.000000
    10  O    3.433676   3.056470   2.706667   2.574948   0.000000
    11  H    4.348905   3.633341   3.056470   3.332255   0.960000
    12  H    3.571031   3.727848   3.534868   3.056470   0.960000
    13  O    4.452640   5.788343   5.977052   4.862625   3.862753
    14  H    4.765779   5.755683   5.788343   4.886972   3.406797
    15  H    5.285478   6.723683   6.931273   5.788343   4.794852
    16  O    4.033620   5.978429   6.562457   5.055583   5.513807
    17  H    3.748698   5.500963   5.978429   4.548879   4.688654
    18  H    4.970238   6.911404   7.463655   5.978429   6.228540
    19  O    2.123371   3.813322   4.653706   3.155695   5.010218
    20  H    1.581145   3.044513   3.813322   2.302270   4.110031
    21  H    2.709650   4.579043   5.357014   3.813321   5.281595
    22  O    3.568405   3.729121   3.952294   3.050006   3.602880
    23  H    4.015733   3.746367   3.729121   3.169520   3.189373
    24  H    3.948140   4.511470   4.762566   3.729121   3.974230
    25  O    2.282476   4.412366   5.213259   3.863675   5.274646
    26  H    1.614769   3.688235   4.412366   3.110706   4.361013
    27  H    2.828633   5.084600   5.846080   4.412366   5.529270
    28  O    2.596580   3.999975   4.370084   3.434409   3.491172
    29  H    2.958254   3.839942   3.999975   3.339899   2.827734
    30  H    3.032712   4.695490   5.075418   3.999975   3.821370
    31  O    4.667807   5.560102   6.129106   4.917615   6.176441
    32  H    4.499343   5.109474   5.560102   4.470943   5.513878
    33  H    5.174041   6.284085   6.837787   5.560102   6.564310
    34  O    4.976906   4.335556   3.877022   3.901922   2.334231
    35  H    5.800190   4.940241   4.335556   4.631235   2.849564
    36  H    5.156755   4.920599   4.589221   4.335556   2.688985
    37  O    4.409982   4.399207   4.092635   4.066309   2.248404
    38  H    5.211352   4.878483   4.399207   4.647132   2.562094
    39  H    4.529524   4.900448   4.693125   4.399207   2.466462
    40  O    3.846357   5.681317   6.526342   5.018925   6.658722
    41  H    3.096055   4.879015   5.681317   4.163103   5.738330
    42  H    4.486948   6.419370   7.220699   5.681317   7.045302
                   11         12         13         14         15
    11  H    0.000000
    12  H    1.567673   0.000000
    13  O    4.480921   2.948612   0.000000
    14  H    3.862753   2.448289   0.960000   0.000000
    15  H    5.363096   3.862753   0.960000   1.567673   0.000000
    16  O    6.376821   4.883914   2.896473   3.796729   2.998042
    17  H    5.513807   4.006049   2.051136   2.896473   2.328145
    18  H    7.047758   5.513807   3.103877   4.034111   2.896473
    19  O    5.929200   4.914521   4.778003   5.352219   5.387736
    20  H    5.010218   4.069029   4.342302   4.778003   5.066396
    21  H    6.209893   5.010218   4.298155   4.990537   4.778003
    22  O    4.199117   3.465571   4.050058   4.101051   4.751900
    23  H    3.602880   3.133040   4.222620   4.050058   4.962107
    24  H    4.589199   3.602880   3.473987   3.619204   4.050058
    25  O    6.202302   5.187885   5.060384   5.658441   5.643394
    26  H    5.274646   4.327251   4.586963   5.060384   5.281575
    27  H    6.467912   5.274646   4.605462   5.313675   5.060384
    28  O    4.268921   3.408357   4.072651   4.287855   4.812822
    29  H    3.491172   2.835330   4.078048   4.072651   4.880742
    30  H    4.610062   3.491172   3.442808   3.777107   4.072651
    31  O    6.909210   5.920293   5.318316   5.799746   5.686307
    32  H    6.176441   5.283815   4.977460   5.318316   5.425782
    33  H    7.300228   6.176441   5.106671   5.660836   5.318316
    34  O    2.149525   2.347303   4.347803   3.720083   5.110062
    35  H    2.334231   2.965739   5.080449   4.347803   5.799543
    36  H    2.648935   2.334231   3.679300   3.014510   4.347803
    37  O    2.321533   2.422893   4.555227   4.104643   5.358482
    38  H    2.248404   2.827333   5.147358   4.555227   5.922240
    39  H    2.651797   2.248404   3.824926   3.367857   4.555227
    40  O    7.588934   6.394065   5.441312   6.214903   5.770746
    41  H    6.658722   5.485283   4.736446   5.441312   5.171263
    42  H    7.968941   6.658722   5.268532   6.114653   5.441311
                   16         17         18         19         20
    16  O    0.000000
    17  H    0.960000   0.000000
    18  H    0.960000   1.567673   0.000000
    19  O    3.092218   3.205425   4.010373   0.000000
    20  H    3.269874   3.092218   4.222293   0.960000   0.000000
    21  H    2.209917   2.492201   3.092218   0.960000   1.567673
    22  O    4.111761   3.495458   4.838084   3.378108   2.632856
    23  H    4.841294   4.111761   5.527477   4.211235   3.378108
    24  H    3.499899   2.859256   4.111760   3.514827   2.913542
    25  O    3.888742   4.053243   4.656783   2.705398   2.972257
    26  H    3.957152   3.888742   4.778782   2.765365   2.705398
    27  H    3.225245   3.510424   3.888742   2.863346   3.213764
    28  O    4.649174   4.279022   5.339895   4.275492   3.896628
    29  H    5.173278   4.649174   5.854645   4.818626   4.275492
    30  H    4.069196   3.723972   4.649174   4.338554   4.042441
    31  O    3.678332   3.711967   4.231149   3.024070   3.098748
    32  H    3.889055   3.678332   4.484601   3.245143   3.024070
    33  H    3.316750   3.444387   3.678332   3.495051   3.645137
    34  O    6.083125   5.180352   6.673579   5.875381   4.955845
    35  H    7.001141   6.083125   7.560597   6.806101   5.875381
    36  H    5.596014   4.664912   6.083125   5.867772   5.008537
    37  O    6.476219   5.738939   7.087140   6.298025   5.555878
    38  H    7.265715   6.476220   7.854371   7.092647   6.298025
    39  H    5.958061   5.206428   6.476219   6.230719   5.535244
    40  O    2.854234   3.472723   3.487577   1.872967   2.762213
    41  H    2.465096   2.854234   3.272253   1.108777   1.872967
    42  H    2.444036   3.240504   2.854234   2.633315   3.416221
                   21         22         23         24         25
    21  H    0.000000
    22  O    3.508905   0.000000
    23  H    4.387448   0.960000   0.000000
    24  H    3.378108   0.960000   1.567674   0.000000
    25  O    2.877986   5.403782   6.009765   5.494113   0.000000
    26  H    3.037314   4.911989   5.403782   5.072126   0.960000
    27  H    2.705398   5.482666   6.131105   5.403782   0.960000
    28  O    4.424908   5.337237   5.548987   5.459568   2.687043
    29  H    5.013336   5.293783   5.337237   5.473511   3.571142
    30  H    4.275492   5.385956   5.650494   5.337237   2.793823
    31  O    2.813861   2.831810   3.725275   2.610127   5.623327
    32  H    3.149313   2.000955   2.831810   1.847115   5.796662
    33  H    3.024070   3.326970   4.188276   2.831810   5.893574
    34  O    6.037605   3.061747   2.194511   3.365659   6.980548
    35  H    6.990706   3.971891   3.061747   4.282952   7.818215
    36  H    5.875381   3.043705   2.306538   3.061748   6.977157
    37  O    6.507808   5.699990   5.393870   5.932717   5.540107
    38  H    7.321646   6.142405   5.699990   6.407089   6.475095
    39  H    6.298025   5.623685   5.370679   5.699990   5.467318
    40  O    1.387394   4.659183   5.588478   4.488390   3.419746
    41  H    0.510533   3.745409   4.659183   3.616648   3.163792
    42  H    1.872967   5.011340   5.937258   4.659183   3.893974
                   26         27         28         29         30
    26  H    0.000000
    27  H    1.567673   0.000000
    28  O    1.878975   2.911727   0.000000
    29  H    2.687043   3.824318   0.960000   0.000000
    30  H    2.174901   2.687043   0.960000   1.567674   0.000000
    31  O    5.611196   5.509319   6.725372   7.050219   6.604927
    32  H    5.623327   5.739903   6.526780   6.725372   6.450403
    33  H    5.933998   5.623327   6.977062   7.332718   6.725372
    34  O    6.178577   7.114674   5.627959   5.072666   5.764382
    35  H    6.980548   7.976805   6.281648   5.627959   6.451952
    36  H    6.224297   6.980548   5.653578   5.160946   5.627959
    37  O    4.615401   5.773839   2.983102   2.029603   3.347681
    38  H    5.540107   6.722029   3.939759   2.983102   4.294668
    39  H    4.595117   5.540107   2.904139   2.066111   2.983102
    40  O    3.901660   3.173247   5.499095   6.195126   5.317756
    41  H    3.419747   2.999801   4.893231   5.499095   4.753586
    42  H    4.393828   3.419746   5.834790   6.542073   5.499095
                   31         32         33         34         35
    31  O    0.000000
    32  H    0.960000   0.000000
    33  H    0.960000   1.567673   0.000000
    34  O    5.847204   4.969351   6.186367   0.000000
    35  H    6.747469   5.847204   7.086895   0.960000   0.000000
    36  H    5.652579   4.803197   5.847204   0.960000   1.567673
    37  O    8.017334   7.479617   8.313416   4.306376   4.541899
    38  H    8.628663   8.017334   8.938873   4.278329   4.306376
    39  H    7.828513   7.318951   8.017334   4.325805   4.627198
    40  O    3.117638   3.782307   3.207072   7.367016   8.323224
    41  H    2.641343   3.117638   2.855999   6.411943   7.367016
    42  H    3.316207   4.024649   3.117638   7.662260   8.621355
                   36         37         38         39         40
    36  H    0.000000
    37  O    4.496706   0.000000
    38  H    4.538061   0.960000   0.000000
    39  H    4.306376   0.960000   1.567674   0.000000
    40  O    7.188799   7.813593   8.654073   7.596331   0.000000
    41  H    6.255662   7.003905   7.813593   6.805960   0.960000
    42  H    7.367016   8.139007   8.983239   7.813593   0.960000
                   41         42
    41  H    0.000000
    42  H    1.567673   0.000000
 Symmetry turned off by external request.
 Stoichiometry    CH28NO12(1+)
 Framework group  C1[X(CH28NO12)]
 Deg. of freedom   120
 Full point group                 C1      NOp   1
 Rotational constants (GHZ):      0.4498508      0.2970201      0.2607202
 ONIOM: saving gridpoint 17
 ONIOM: restoring gridpoint  3 on chk file.
 ONIOM: generating point  3 -- low level on real system.
 ChrgS2: IScale=     5     5     5     5     0     0 (distance 6..1 bonds)
 ChrgS2:  Scale=  1.00  1.00  1.00  1.00  0.00  0.00 (distance 6..1 bonds)

 --------------------------------------------------------------------------------
 #P Test IOp(2/15=1,5/32=2,5/38=1) AMBER

 Title Card Required
 Point  3 -- low level on real system.

 1,1
  C-CM                                              2.354883810000      0.769706310000     -1.677118970000
  H-H1                                              2.309355990000      1.302063150000     -0.750068050000
  H-H1                                              2.290439130000      1.301682690000     -2.603265830000
  N-N3                                              2.505967520000     -0.692508510000     -1.678360990000
  H-H                                               2.079677540000     -1.072360450000     -0.857392440000
  H-H                                               2.063009330000     -1.072695680000     -2.490300500000
  O-OW                                              3.763187860000     -2.456002140000     -1.830501700000
  H-HW                                              4.723187870000     -2.455761080000     -1.830501700000
  H-HW                                              3.442960510000     -1.550985830000     -1.830501700000
  O-OW                                              5.292528280000      0.092416380000     -2.543724590000
  H-HW                                              6.252528210000      0.092657520000     -2.543724590000
  H-HW                                              4.972301030000      0.997432640000     -2.543724590000
  O-OW                                              3.085382090000      3.260630320000     -2.435158750000
  H-HW                                              4.045382060000      3.260871420000     -2.435158750000
  H-HW                                              2.765154790000      4.165646610000     -2.435158750000
  O-OW                                              0.427241500000      2.498478350000     -1.573202420000
  H-HW                                              1.387241470000      2.498719460000     -1.573202420000
  H-HW                                              0.107014210000      3.403494630000     -1.573202420000
  O-OW                                              0.536688680000     -0.556485800000     -1.107340630000
  H-HW                                              1.496688640000     -0.556244680000     -1.107340630000
  H-HW                                              0.216461400000      0.348530480000     -1.107340630000
  O-OW                                              3.349604240000      0.450314950000      0.469197490000
  H-HW                                              4.309604280000      0.450555970000      0.469197490000
  H-HW                                              3.029376840000      1.355331270000      0.469197490000
  O-OW                                              0.227590810000     -0.689075730000     -3.791750350000
  H-HW                                              1.187590790000     -0.688834640000     -3.791750350000
  H-HW                                             -0.092636500000      0.215940560000     -3.791750350000
  O-OW                                              2.629119160000     -0.025155490000     -4.797768280000
  H-HW                                              3.589119190000     -0.024914450000     -4.797768280000
  H-HW                                              2.308891780000      0.879860830000     -4.797768280000
  O-OW                                              0.778221960000      0.716128790000      1.625260950000
  H-HW                                              1.738221930000      0.716369900000      1.625260950000
  H-HW                                              0.457994670000      1.621145070000      1.625260950000
  O-OW                                              6.203671310000      0.890164040000     -0.548216570000
  H-HW                                              7.163671250000      0.890405160000     -0.548216570000
  H-HW                                              5.883444030000      1.795180310000     -0.548216570000
  O-OW                                              5.598427030000      0.259500080000     -4.764947290000
  H-HW                                              6.558427030000      0.259741150000     -4.764947290000
  H-HW                                              5.278199690000      1.164516380000     -4.764947290000
  O-OW                                             -1.130291310000      0.237487330000     -0.793033500000
  H-HW                                             -0.170291430000      0.237728540000     -0.793033500000
  H-HW                                             -1.450518470000      1.142503560000     -0.793033500000

 1 2 1.000 3 1.000 4 1.000
 2 1 1.000
 3 1 1.000
 4 1 1.000 5 1.000 6 1.000
 5 4 1.000
 6 4 1.000
 7 8 1.000 9 1.000
 8 7 1.000
 9 7 1.000
 10 11 1.000 12 1.000
 11 10 1.000
 12 10 1.000
 13 14 1.000 15 1.000
 14 13 1.000
 15 13 1.000
 16 17 1.000 18 1.000
 17 16 1.000
 18 16 1.000
 19 20 1.000 21 1.000
 20 19 1.000
 21 19 1.000
 22 23 1.000 24 1.000
 23 22 1.000
 24 22 1.000
 25 26 1.000 27 1.000
 26 25 1.000
 27 25 1.000
 28 29 1.000 30 1.000
 29 28 1.000
 30 28 1.000
 31 32 1.000 33 1.000
 32 31 1.000
 33 31 1.000
 34 35 1.000 36 1.000
 35 34 1.000
 36 34 1.000
 37 38 1.000 39 1.000
 38 37 1.000
 39 37 1.000
 40 41 1.000 42 1.000
 41 40 1.000
 42 40 1.000
 
 --------------------------------------------------------------------------------

 Standard basis: Dummy (5D, 7F)
    42 basis functions,    42 primitive gaussians,    42 cartesian basis functions
    27 alpha electrons       27 beta electrons
       nuclear repulsion energy       227.1722014527 Hartrees.
 NAtoms=   42 NActive=   42 NUniq=   42 SFac= 1.00D+00 NAtFMM=   60 NAOKFM=F Big=F
 Integral buffers will be    131072 words long.
 Raffenetti 1 integral format.
 Two-electron integral symmetry is turned off.
 AMBER calculation of energy and first derivatives.
 Energy=     1.08696053     NIter=   0.
 Dipole moment=       0.000000       0.000000       0.000000
 Cartesian Forces:  Max     1.484349204 RMS     0.185735871
 ONIOM: saving gridpoint  3
 ONIOM: restoring gridpoint 17
 ONIOM: restoring gridpoint  2 on chk file.
 ONIOM: generating point  2 -- high level on model system.
 ChrgS2: IScale=     5     5     5     5     0     0 (distance 6..1 bonds)
 ChrgS2:  Scale=  1.00  1.00  1.00  1.00  0.00  0.00 (distance 6..1 bonds)

 --------------------------------------------------------------------------------
 #P Test IOp(2/15=1,5/32=2,5/38=1) B3LYP/6-31G(D,P)

 Title Card Required
 Point  2 -- high level on model system.

 1,1
  C-CM                                              2.354883810000      0.769706310000     -1.677118970000
  H-H1                                              2.309355990000      1.302063150000     -0.750068050000
  H-H1                                              2.290439130000      1.301682690000     -2.603265830000
  N-N3                                              2.505967520000     -0.692508510000     -1.678360990000
  H-H                                               2.079677540000     -1.072360450000     -0.857392440000
  H-H                                               2.063009330000     -1.072695680000     -2.490300500000
  O-#6                                              3.763187860000     -2.456002140000     -1.830501700000
  H-#6                                              4.723187870000     -2.455761080000     -1.830501700000
  H-#6                                              3.442960510000     -1.550985830000     -1.830501700000
  O-#6                                              5.292528280000      0.092416380000     -2.543724590000
  H-#6                                              6.252528210000      0.092657520000     -2.543724590000
  H-#6                                              4.972301030000      0.997432640000     -2.543724590000
  O-#6                                              3.085382090000      3.260630320000     -2.435158750000
  H-#6                                              4.045382060000      3.260871420000     -2.435158750000
  H-#6                                              2.765154790000      4.165646610000     -2.435158750000
  O-#6                                              0.427241500000      2.498478350000     -1.573202420000
  H-#6                                              1.387241470000      2.498719460000     -1.573202420000
  H-#6                                              0.107014210000      3.403494630000     -1.573202420000
  O-#6                                              0.536688680000     -0.556485800000     -1.107340630000
  H-#6                                              1.496688640000     -0.556244680000     -1.107340630000
  H-#6                                              0.216461400000      0.348530480000     -1.107340630000
  O-#6                                              3.349604240000      0.450314950000      0.469197490000
  H-#6                                              4.309604280000      0.450555970000      0.469197490000
  H-#6                                              3.029376840000      1.355331270000      0.469197490000
  O-#6                                              0.227590810000     -0.689075730000     -3.791750350000
  H-#6                                              1.187590790000     -0.688834640000     -3.791750350000
  H-#6                                             -0.092636500000      0.215940560000     -3.791750350000
  O-#6                                              2.629119160000     -0.025155490000     -4.797768280000
  H-#6                                              3.589119190000     -0.024914450000     -4.797768280000
  H-#6                                              2.308891780000      0.879860830000     -4.797768280000
  O-#6                                              0.778221960000      0.716128790000      1.625260950000
  H-#6                                              1.738221930000      0.716369900000      1.625260950000
  H-#6                                              0.457994670000      1.621145070000      1.625260950000
  O-#6                                              6.203671310000      0.890164040000     -0.548216570000
  H-#6                                              7.163671250000      0.890405160000     -0.548216570000
  H-#6                                              5.883444030000      1.795180310000     -0.548216570000
  O-#6                                              5.598427030000      0.259500080000     -4.764947290000
  H-#6                                              6.558427030000      0.259741150000     -4.764947290000
  H-#6                                              5.278199690000      1.164516380000     -4.764947290000
  O-#6                                             -1.130291310000      0.237487330000     -0.793033500000
  H-#6                                             -0.170291430000      0.237728540000     -0.793033500000
  H-#6                                             -1.450518470000      1.142503560000     -0.793033500000

 1 2 1.000 3 1.000 4 1.000
 2 1 1.000
 3 1 1.000
 4 1 1.000 5 1.000 6 1.000
 5 4 1.000
 6 4 1.000
 7 8 1.000 9 1.000
 8 7 1.000
 9 7 1.000
 10 11 1.000 12 1.000
 11 10 1.000
 12 10 1.000
 13 14 1.000 15 1.000
 14 13 1.000
 15 13 1.000
 16 17 1.000 18 1.000
 17 16 1.000
 18 16 1.000
 19 20 1.000 21 1.000
 20 19 1.000
 21 19 1.000
 22 23 1.000 24 1.000
 23 22 1.000
 24 22 1.000
 25 26 1.000 27 1.000
 26 25 1.000
 27 25 1.000
 28 29 1.000 30 1.000
 29 28 1.000
 30 28 1.000
 31 32 1.000 33 1.000
 32 31 1.000
 33 31 1.000
 34 35 1.000 36 1.000
 35 34 1.000
 36 34 1.000
 37 38 1.000 39 1.000
 38 37 1.000
 39 37 1.000
 40 41 1.000 42 1.000
 41 40 1.000
 42 40 1.000
 
 --------------------------------------------------------------------------------

 Standard basis: 6-31G(d,p) (6D, 7F)
    50 basis functions,    84 primitive gaussians,    50 cartesian basis functions
     8 alpha electrons        8 beta electrons
       nuclear repulsion energy        36.3482403487 Hartrees.
 NAtoms=   42 NActive=    6 NUniq=    6 SFac= 1.00D+00 NAtFMM=   60 NAOKFM=F Big=F
 Integral buffers will be    131072 words long.
 Raffenetti 2 integral format.
 Two-electron integral symmetry is turned off.
 One-electron integrals computed using PRISM.
 NBasis=    50 RedAO= T EigKep=  1.17D-02  NBF=    50
 NBsUse=    50 1.00D-06 EigRej= -1.00D+00 NBFU=    50
 ExpMin= 1.61D-01 ExpMax= 4.17D+03 ExpMxC= 6.27D+02 IAcc=1 IRadAn=         1 AccDes= 0.00D+00
 Harris functional with IExCor=  402 and IRadAn=       1 diagonalized for initial guess.
 HarFok:  IExCor=  402 AccDes= 0.00D+00 IRadAn=         1 IDoV= 1 UseB2=F ITyADJ=14
 ICtDFT=  3500011 ScaDFX=  1.000000  1.000000  1.000000  1.000000
 FoFCou: FMM=F IPFlag=           0 FMFlag=      100000 FMFlg1=           0
         NFxFlg=           0 DoJE=T BraDBF=F KetDBF=T FulRan=T
         wScrn=  0.000000 ICntrl=     500 IOpCl=  0 I1Cent=   200000004 NGrid=           0
         NMat0=    1 NMatS0=      1 NMatT0=    0 NMatD0=    1 NMtDS0=    0 NMtDT0=    0
 Symmetry not used in FoFCou.
 Keep R1 ints in memory in canonical form, NReq=1712990.
 Requested convergence on RMS density matrix=1.00D-08 within 128 cycles.
 Requested convergence on MAX density matrix=1.00D-06.
 Requested convergence on             energy=1.00D-06.
 No special actions if energy rises.
 Integral accuracy reduced to 1.0D-05 until final iterations.
 Initial convergence to 1.0D-05 achieved.  Increase integral accuracy.
 SCF Done:  E(RB3LYP) =  -94.9315090193     A.U. after   11 cycles
            NFock= 11  Conv=0.58D-08     -V/T= 2.0123

 **********************************************************************

            Population analysis using the SCF density.

 **********************************************************************

 Alpha  occ. eigenvalues --  -14.68335 -10.58667  -1.20533  -0.95924  -0.81908
 Alpha  occ. eigenvalues --   -0.76138  -0.70837  -0.62542
 Alpha virt. eigenvalues --   -0.38163  -0.16113  -0.12587  -0.11005  -0.05189
 Alpha virt. eigenvalues --   -0.03608   0.24028   0.27650   0.28202   0.37943
 Alpha virt. eigenvalues --    0.42390   0.51425   0.54788   0.59233   0.63642
 Alpha virt. eigenvalues --    0.65062   0.67887   0.92221   1.03751   1.11727
 Alpha virt. eigenvalues --    1.28052   1.46358   1.57299   1.62845   1.68613
 Alpha virt. eigenvalues --    1.82176   1.90962   1.97890   2.08098   2.12034
 Alpha virt. eigenvalues --    2.18111   2.29538   2.36993   2.48839   2.53197
 Alpha virt. eigenvalues --    2.66499   2.98194   3.11582   3.13855   3.22328
 Alpha virt. eigenvalues --    3.61783   3.97312
     Molecular Orbital Coefficients:
                           1         2         3         4         5
                           O         O         O         O         O
     Eigenvalues --   -14.68335 -10.58667  -1.20533  -0.95924  -0.81908
   1 1   C  1S          0.00001   0.99286  -0.09038  -0.18245   0.00000
   2        2S          0.00013   0.04770   0.18424   0.39662   0.00000
   3        2PX         0.00004   0.00016   0.00475   0.00135   0.00272
   4        2PY        -0.00027  -0.00035  -0.10969   0.08381   0.00005
   5        2PZ         0.00000   0.00000  -0.00003  -0.00003   0.26693
   6        3S         -0.00025  -0.01000   0.08287   0.34687   0.00000
   7        3PX        -0.00009  -0.00007  -0.00262  -0.00432   0.00114
   8        3PY         0.00007  -0.00006   0.00505   0.01993   0.00002
   9        3PZ         0.00000   0.00000   0.00003   0.00004   0.11163
  10        4XX        -0.00002  -0.00955  -0.01121  -0.01742  -0.00002
  11        4YY         0.00015  -0.00901   0.01652  -0.01102   0.00000
  12        4ZZ         0.00002  -0.00898  -0.00937   0.00047   0.00002
  13        4XY        -0.00002  -0.00003  -0.00161  -0.00253  -0.00006
  14        4XZ         0.00000   0.00001   0.00002   0.00021  -0.00101
  15        4YZ         0.00000   0.00000   0.00001   0.00003  -0.00553
  16 2   H  1S         -0.00002  -0.00042   0.03669   0.16023   0.10935
  17        2S          0.00000   0.00211   0.00085   0.03720   0.03728
  18        3PX         0.00000  -0.00001   0.00027   0.00059   0.00028
  19        3PY         0.00004   0.00006  -0.00384  -0.00575  -0.00410
  20        3PZ         0.00001   0.00008  -0.00361  -0.01208  -0.00376
  21 3   H  1S         -0.00002  -0.00042   0.03669   0.16023  -0.10935
  22        2S          0.00000   0.00211   0.00085   0.03720  -0.03728
  23        3PX         0.00000  -0.00001   0.00034   0.00084  -0.00036
  24        3PY         0.00004   0.00006  -0.00384  -0.00575   0.00410
  25        3PZ        -0.00001  -0.00008   0.00361   0.01207  -0.00375
  26 4   N  1S          0.99273  -0.00011  -0.19307   0.06945   0.00000
  27        2S          0.03454   0.00001   0.41015  -0.15405   0.00000
  28        2PX        -0.00065   0.00005  -0.07490   0.06205   0.00448
  29        2PY         0.00020  -0.00021   0.04409   0.19571   0.00009
  30        2PZ         0.00001   0.00000   0.00076  -0.00067   0.43907
  31        3S          0.00397   0.00124   0.40500  -0.19385   0.00000
  32        3PX         0.00007   0.00018  -0.03747   0.03027   0.00203
  33        3PY        -0.00023   0.00043   0.03030   0.06906   0.00004
  34        3PZ         0.00000   0.00000   0.00038  -0.00032   0.19858
  35        4XX        -0.00818  -0.00001  -0.01165   0.00003  -0.00038
  36        4YY        -0.00827  -0.00063   0.00073   0.01804   0.00000
  37        4ZZ        -0.00805  -0.00020  -0.00840  -0.00311   0.00038
  38        4XY         0.00007   0.00006  -0.00053  -0.00759   0.00000
  39        4XZ         0.00000   0.00000   0.00004  -0.00004  -0.02176
  40        4YZ         0.00000   0.00000   0.00000   0.00007   0.00069
  41 5   H  1S          0.00022   0.00004   0.12887  -0.10258   0.19831
  42        2S         -0.00054   0.00034  -0.00072  -0.02035   0.07860
  43        3PX        -0.00003   0.00002   0.00640  -0.00361   0.00690
  44        3PY        -0.00005   0.00013   0.00762  -0.00035   0.00815
  45        3PZ         0.00010  -0.00008  -0.01519   0.00985  -0.00429
  46 6   H  1S          0.00022   0.00004   0.12887  -0.10258  -0.19831
  47        2S         -0.00054   0.00034  -0.00072  -0.02035  -0.07860
  48        3PX        -0.00003   0.00003   0.00671  -0.00381  -0.00699
  49        3PY        -0.00005   0.00013   0.00762  -0.00036  -0.00815
  50        3PZ        -0.00010   0.00008   0.01505  -0.00977  -0.00414
                           6         7         8         9        10
                           O         O         O         V         V
     Eigenvalues --    -0.76138  -0.70837  -0.62542  -0.38163  -0.16113
   1 1   C  1S          0.01344   0.00000   0.01155  -0.00538   0.00356
   2        2S         -0.02151   0.00000  -0.02445   0.02197   0.03601
   3        2PX         0.08334   0.00438   0.27658   0.56689  -0.02058
   4        2PY        -0.40662   0.00009   0.13840   0.02752   0.20326
   5        2PZ        -0.00077   0.42920  -0.00285  -0.00579   0.00017
   6        3S         -0.05744   0.00000  -0.02689  -0.01190  -0.03145
   7        3PX         0.02735   0.00168   0.16981   0.48851  -0.00568
   8        3PY        -0.12055   0.00003   0.05870   0.04764   0.67363
   9        3PZ        -0.00025   0.16442  -0.00175  -0.00500  -0.00008
  10        4XX         0.00051  -0.00004   0.00458  -0.00248  -0.00586
  11        4YY         0.02043   0.00001  -0.00449   0.00191   0.02750
  12        4ZZ        -0.01783   0.00003   0.00470   0.00060  -0.01649
  13        4XY        -0.00825   0.00030  -0.01995   0.01352   0.00188
  14        4XZ        -0.00021  -0.00213   0.00001   0.00003  -0.00013
  15        4YZ         0.00008   0.02923   0.00021  -0.00014  -0.00003
  16 2   H  1S         -0.12553   0.22553   0.02291  -0.00352  -0.00062
  17        2S         -0.06621   0.13713   0.02034  -0.00725  -0.33465
  18        3PX         0.00126   0.00034   0.00579   0.01722   0.00029
  19        3PY        -0.00143  -0.00686   0.00178   0.00097   0.00916
  20        3PZ         0.00731  -0.00447  -0.00117   0.00038  -0.00759
  21 3   H  1S         -0.12553  -0.22553   0.02291  -0.00352  -0.00062
  22        2S         -0.06621  -0.13713   0.02034  -0.00725  -0.33465
  23        3PX         0.00112  -0.00044   0.00582   0.01720   0.00044
  24        3PY        -0.00143   0.00686   0.00178   0.00097   0.00916
  25        3PZ        -0.00734  -0.00446   0.00105  -0.00073   0.00758
  26 4   N  1S         -0.01165   0.00000  -0.05295   0.03393  -0.12710
  27        2S          0.03522   0.00000   0.12750  -0.07877   0.22139
  28        2PX         0.13249  -0.00288   0.49511  -0.33292  -0.17755
  29        2PY         0.42524  -0.00006  -0.14157   0.05321   0.00319
  30        2PZ        -0.00144  -0.28258  -0.00502   0.00339   0.00181
  31        3S          0.03074   0.00000   0.19595  -0.17387   1.77403
  32        3PX         0.07221  -0.00149   0.33320  -0.30311  -0.40118
  33        3PY         0.19674  -0.00003  -0.08662   0.05084   0.05232
  34        3PZ        -0.00078  -0.14614  -0.00338   0.00308   0.00409
  35        4XX        -0.00590   0.00026  -0.01808   0.00874  -0.02173
  36        4YY         0.01517   0.00001   0.00474   0.00125  -0.02579
  37        4ZZ        -0.00865  -0.00027   0.00591   0.00303  -0.04076
  38        4XY        -0.01054   0.00016   0.01939   0.01962  -0.00419
  39        4XZ        -0.00003   0.01486   0.00028  -0.00007  -0.00022
  40        4YZ         0.00010   0.01582  -0.00020  -0.00020   0.00004
  41 5   H  1S         -0.11656  -0.14725  -0.03553   0.06272  -0.08955
  42        2S         -0.05614  -0.07917  -0.01663   0.06217  -0.94605
  43        3PX        -0.00073  -0.00433   0.01216  -0.00916   0.00432
  44        3PY         0.00651  -0.00335  -0.00675   0.00066   0.00320
  45        3PZ         0.00861   0.00241   0.00384  -0.00267  -0.01267
  46 6   H  1S         -0.11656   0.14725  -0.03553   0.06272  -0.08955
  47        2S         -0.05614   0.07917  -0.01663   0.06217  -0.94605
  48        3PX        -0.00091   0.00438   0.01208  -0.00911   0.00457
  49        3PY         0.00650   0.00335  -0.00676   0.00066   0.00321
  50        3PZ        -0.00860   0.00232  -0.00408   0.00286   0.01257
                          11        12        13        14        15
                           V         V         V         V         V
     Eigenvalues --    -0.12587  -0.11005  -0.05189  -0.03608   0.24028
   1 1   C  1S         -0.15969   0.00000   0.01922   0.00000  -0.01349
   2        2S          0.33014   0.00000  -0.03638   0.00000   0.21288
   3        2PX         0.00210   0.00291  -0.03243  -0.00399   0.14585
   4        2PY        -0.04318   0.00006   0.44996  -0.00008  -0.85445
   5        2PZ        -0.00001   0.28481   0.00024  -0.39124  -0.00131
   6        3S          2.08510   0.00000  -0.05150   0.00000  -0.32592
   7        3PX         0.01571   0.00665  -0.19440  -0.01213  -0.21211
   8        3PY        -0.06982   0.00013   1.34037  -0.00024   1.80728
   9        3PZ        -0.00015   0.65100   0.00171  -1.18868   0.00179
  10        4XX         0.01211   0.00021  -0.00596   0.00012   0.03647
  11        4YY        -0.03078  -0.00001   0.03650   0.00001   0.02370
  12        4ZZ        -0.01774  -0.00020  -0.03676  -0.00012  -0.03542
  13        4XY         0.00537  -0.00032  -0.01249   0.00016  -0.00252
  14        4XZ        -0.00035   0.01170  -0.00036   0.00670  -0.00085
  15        4YZ        -0.00005  -0.03124   0.00011   0.01581   0.00001
  16 2   H  1S         -0.11458  -0.07637  -0.06332   0.07727  -0.19967
  17        2S         -1.09857  -0.83918  -0.75988   1.36390  -0.22648
  18        3PX         0.00090   0.00321  -0.00262   0.00087  -0.00147
  19        3PY        -0.00813  -0.00696   0.01508   0.01257   0.02173
  20        3PZ        -0.00734  -0.00411  -0.01557   0.00338   0.00680
  21 3   H  1S         -0.11458   0.07637  -0.06332  -0.07727  -0.19967
  22        2S         -1.09857   0.83918  -0.75988  -1.36390  -0.22648
  23        3PX         0.00105  -0.00329  -0.00230  -0.00080  -0.00161
  24        3PY        -0.00812   0.00696   0.01508  -0.01257   0.02173
  25        3PZ         0.00733  -0.00405   0.01561   0.00341  -0.00678
  26 4   N  1S          0.05315   0.00000  -0.01651   0.00000   0.01270
  27        2S         -0.10567   0.00000   0.01633   0.00000  -0.13720
  28        2PX         0.02838   0.00321   0.10283   0.00322   0.10200
  29        2PY        -0.26207   0.00006   0.43324   0.00006  -0.03397
  30        2PZ        -0.00024   0.31444  -0.00114   0.31520  -0.00103
  31        3S         -0.58928   0.00000   0.24947   0.00000   0.91210
  32        3PX         0.03393   0.00647   0.17537   0.00775  -0.10756
  33        3PY        -0.54196   0.00013   1.00032   0.00016   0.26700
  34        3PZ        -0.00024   0.63417  -0.00200   0.75947   0.00104
  35        4XX         0.00709   0.00017   0.00092   0.00002  -0.05499
  36        4YY         0.02915   0.00001  -0.02380  -0.00001   0.12147
  37        4ZZ        -0.00625  -0.00019   0.01548  -0.00002  -0.06395
  38        4XY         0.00563   0.00037  -0.00119  -0.00015  -0.00372
  39        4XZ        -0.00016   0.00987   0.00017   0.00127  -0.00010
  40        4YZ        -0.00007   0.03641   0.00002  -0.01442  -0.00001
  41 5   H  1S         -0.00648  -0.13107   0.07096  -0.04000  -0.07405
  42        2S         -0.00558  -1.04775   0.69947  -0.89302   0.21212
  43        3PX        -0.00045   0.00768  -0.00383   0.00786   0.00305
  44        3PY        -0.01168   0.00703   0.00654  -0.00117  -0.03722
  45        3PZ        -0.00153  -0.00454   0.00898  -0.00295  -0.00404
  46 6   H  1S         -0.00648   0.13107   0.07096   0.04000  -0.07405
  47        2S         -0.00558   1.04775   0.69947   0.89303   0.21212
  48        3PX        -0.00042  -0.00777  -0.00401  -0.00791   0.00314
  49        3PY        -0.01168  -0.00703   0.00653   0.00117  -0.03722
  50        3PZ         0.00155  -0.00438  -0.00890  -0.00279   0.00399
                          16        17        18        19        20
                           V         V         V         V         V
     Eigenvalues --     0.27650   0.28202   0.37943   0.42390   0.51425
   1 1   C  1S          0.00264   0.00000  -0.06337   0.00941  -0.00237
   2        2S          0.01168   0.00000  -0.73456  -0.23946  -0.54964
   3        2PX        -1.00852  -0.00553  -0.02332   0.17242  -0.05917
   4        2PY        -0.14781  -0.00011   0.13213   0.05831   0.23406
   5        2PZ         0.01033  -0.54155   0.00021  -0.00177   0.00055
   6        3S          0.01079   0.00000   1.18579   0.96529   1.49027
   7        3PX         1.13757   0.01387  -0.08257  -0.33986   0.41851
   8        3PY         0.23633   0.00028   0.30568  -0.37170  -0.73626
   9        3PZ        -0.01167   1.35788   0.00078   0.00355  -0.00412
  10        4XX        -0.00432   0.00030   0.08604  -0.01742   0.00692
  11        4YY         0.02364  -0.00004  -0.15433   0.08752   0.04899
  12        4ZZ        -0.00397  -0.00026  -0.20112  -0.05444  -0.11176
  13        4XY         0.02533  -0.00110   0.03104   0.00355   0.06270
  14        4XZ         0.00000   0.01694  -0.00339  -0.00044  -0.00141
  15        4YZ        -0.00026  -0.10834  -0.00033  -0.00007  -0.00068
  16 2   H  1S         -0.01578  -0.38049  -0.53919  -0.05750  -0.15532
  17        2S         -0.02503  -0.31994  -0.03124  -0.06505   0.03602
  18        3PX        -0.00600   0.00188  -0.00105  -0.00710   0.02234
  19        3PY         0.00316  -0.01601  -0.00592   0.01522   0.00871
  20        3PZ        -0.00054   0.03199  -0.03719  -0.00312  -0.00824
  21 3   H  1S         -0.01578   0.38049  -0.53919  -0.05750  -0.15533
  22        2S         -0.02503   0.31994  -0.03124  -0.06505   0.03602
  23        3PX        -0.00599  -0.00122  -0.00029  -0.00703   0.02250
  24        3PY         0.00316   0.01602  -0.00590   0.01522   0.00871
  25        3PZ         0.00066   0.03201   0.03721   0.00326   0.00778
  26 4   N  1S          0.00793   0.00000  -0.00729  -0.00347  -0.04129
  27        2S         -0.08869   0.00000  -0.18758  -0.02638   0.26010
  28        2PX        -0.14278  -0.00157  -0.12719  -0.77837   0.45786
  29        2PY         0.09933  -0.00003  -0.41928   0.40943   0.27645
  30        2PZ         0.00144  -0.15387   0.00138   0.00786  -0.00473
  31        3S          0.07638   0.00000   0.25974  -0.35066  -0.52260
  32        3PX        -0.05421   0.00206   0.18892   0.90010  -0.92998
  33        3PY        -0.08367   0.00004   0.62861  -0.90918  -1.15260
  34        3PZ         0.00057   0.20145  -0.00206  -0.00900   0.00973
  35        4XX        -0.01352   0.00110  -0.00078   0.00750   0.13463
  36        4YY        -0.01891   0.00004  -0.10713  -0.01960   0.02583
  37        4ZZ        -0.01262  -0.00114  -0.03906  -0.11613  -0.11588
  38        4XY        -0.03107   0.00103  -0.00668  -0.04811  -0.03505
  39        4XZ         0.00002   0.06234  -0.00045  -0.00145  -0.00295
  40        4YZ         0.00032   0.10006   0.00008   0.00047   0.00032
  41 5   H  1S          0.00904  -0.34855   0.05822  -0.25058  -0.54050
  42        2S          0.06745   0.09164  -0.01843   0.12747  -0.12079
  43        3PX         0.00522   0.00693   0.00674   0.00276  -0.02743
  44        3PY        -0.00848   0.03710   0.03289   0.02132  -0.00477
  45        3PZ         0.00033   0.00494  -0.01688  -0.04913  -0.03983
  46 6   H  1S          0.00904   0.34855   0.05822  -0.25058  -0.54050
  47        2S          0.06745  -0.09164  -0.01844   0.12747  -0.12079
  48        3PX         0.00521  -0.00683   0.00709   0.00376  -0.02661
  49        3PY        -0.00848  -0.03710   0.03290   0.02134  -0.00475
  50        3PZ        -0.00043   0.00510   0.01673   0.04906   0.04038
                          21        22        23        24        25
                           V         V         V         V         V
     Eigenvalues --     0.54788   0.59233   0.63642   0.65062   0.67887
   1 1   C  1S          0.00000   0.00000  -0.01841   0.01803   0.00000
   2        2S          0.00000   0.00000  -0.66641  -1.35545   0.00000
   3        2PX        -0.00892  -0.00047   0.05861   0.02716  -0.00201
   4        2PY        -0.00018  -0.00001  -0.02246  -0.41482  -0.00004
   5        2PZ        -0.87359  -0.04652  -0.00059  -0.00019  -0.19717
   6        3S          0.00000   0.00000   2.09273   2.80281   0.00001
   7        3PX         0.02719  -0.00111   0.01592  -0.08913  -0.00633
   8        3PY         0.00055  -0.00002  -0.67569   1.03303  -0.00012
   9        3PZ         2.66377  -0.10831  -0.00002   0.00070  -0.61961
  10        4XX        -0.00064   0.00050   0.01863  -0.11720   0.00056
  11        4YY         0.00006   0.00001  -0.00705  -0.11841   0.00008
  12        4ZZ         0.00058  -0.00051  -0.05519   0.14666  -0.00064
  13        4XY         0.00167   0.00027  -0.03925   0.00948   0.00220
  14        4XZ        -0.03594   0.02852  -0.00086   0.00311   0.03187
  15        4YZ         0.16421   0.02560   0.00039  -0.00003   0.21471
  16 2   H  1S          0.35934  -0.07402  -0.06215   0.54108   0.56845
  17        2S         -1.93926   0.12763  -0.16969  -1.56821  -0.27780
  18        3PX        -0.00660   0.01580  -0.00527   0.00009   0.00428
  19        3PY         0.04723  -0.01441   0.00811   0.01935   0.04972
  20        3PZ         0.07084   0.01157   0.01485   0.08280   0.01453
  21 3   H  1S         -0.35934   0.07402  -0.06215   0.54108  -0.56845
  22        2S          1.93926  -0.12762  -0.16969  -1.56821   0.27779
  23        3PX         0.00805  -0.01556  -0.00557  -0.00160  -0.00399
  24        3PY        -0.04720   0.01442   0.00811   0.01931  -0.04971
  25        3PZ         0.07071   0.01189  -0.01474  -0.08279   0.01464
  26 4   N  1S          0.00000   0.00000   0.03417  -0.01171   0.00000
  27        2S          0.00000   0.00000  -0.59588  -0.03362   0.00000
  28        2PX         0.00198  -0.00865   0.24258  -0.03332  -0.00289
  29        2PY         0.00004  -0.00017   0.61368  -0.19223  -0.00006
  30        2PZ         0.19427  -0.84743  -0.00260   0.00038  -0.28317
  31        3S          0.00000   0.00000   0.87911   0.01474   0.00000
  32        3PX        -0.01086   0.01674  -0.43096   0.07932   0.01365
  33        3PY        -0.00022   0.00034  -1.60080   0.36074   0.00028
  34        3PZ        -1.06400   1.64041   0.00473  -0.00088   1.33688
  35        4XX        -0.00149  -0.00282  -0.10586   0.04860   0.00415
  36        4YY        -0.00002  -0.00006  -0.12513  -0.06794  -0.00002
  37        4ZZ         0.00151   0.00288   0.10489  -0.04733  -0.00412
  38        4XY        -0.00063  -0.00172   0.09529  -0.01090  -0.00065
  39        4XZ        -0.08417  -0.15945   0.00246  -0.00113   0.23464
  40        4YZ        -0.06023  -0.16520  -0.00092   0.00012  -0.06794
  41 5   H  1S          0.30969   0.40585   0.46079  -0.08653  -0.46502
  42        2S         -0.00571  -1.49517  -1.25147   0.22429  -0.14460
  43        3PX        -0.02875  -0.06945  -0.03483  -0.00661   0.07062
  44        3PY         0.03241  -0.06466  -0.02691   0.02204  -0.03495
  45        3PZ        -0.00911   0.10215   0.10645  -0.02588   0.03822
  46 6   H  1S         -0.30969  -0.40585   0.46079  -0.08654   0.46502
  47        2S          0.00571   1.49517  -1.25147   0.22429   0.14461
  48        3PX         0.02856   0.07152  -0.03700  -0.00608  -0.06983
  49        3PY        -0.03241   0.06470  -0.02696   0.02205   0.03497
  50        3PZ        -0.00968   0.10068  -0.10570   0.02600   0.03964
                          26        27        28        29        30
                           V         V         V         V         V
     Eigenvalues --     0.92221   1.03751   1.11727   1.28052   1.46358
   1 1   C  1S          0.02351   0.01037   0.00000   0.00000  -0.00357
   2        2S          0.54778   0.12830   0.00000   0.00000  -0.36119
   3        2PX         0.05274  -0.07156  -0.00009  -0.00051  -0.02596
   4        2PY         0.10190   0.06660   0.00000  -0.00001   0.26563
   5        2PZ        -0.00056   0.00072  -0.00896  -0.05011   0.00021
   6        3S         -2.51498  -0.75858   0.00000   0.00000   0.14383
   7        3PX        -0.08057   0.02554   0.00293   0.01087   0.15354
   8        3PY         0.91537   0.16654   0.00006   0.00022  -0.18589
   9        3PZ         0.00064  -0.00029   0.28666   1.06448  -0.00153
  10        4XX        -0.06365   0.10763   0.01274  -0.00165  -0.40888
  11        4YY        -0.01434  -0.09039   0.00003   0.00003   0.38002
  12        4ZZ         0.07183  -0.02282  -0.01277   0.00162  -0.03416
  13        4XY         0.19994  -0.46757   0.00088   0.00092  -0.31836
  14        4XZ         0.00156  -0.00144   0.72053  -0.09330   0.00448
  15        4YZ        -0.00202   0.00479   0.07192   0.09151   0.00315
  16 2   H  1S          0.09621   0.04266  -0.06638  -0.31416  -0.01000
  17        2S          0.24384   0.11550  -0.10838  -0.38642  -0.02899
  18        3PX         0.04363  -0.10611   0.31758  -0.04885  -0.06687
  19        3PY         0.02140  -0.00468   0.01567  -0.14048   0.12555
  20        3PZ        -0.02559  -0.00739   0.00181   0.03723  -0.07112
  21 3   H  1S          0.09621   0.04266   0.06638   0.31416  -0.01000
  22        2S          0.24385   0.11550   0.10838   0.38642  -0.02899
  23        3PX         0.04414  -0.10594  -0.31747   0.04960  -0.06541
  24        3PY         0.02141  -0.00467  -0.01567   0.14050   0.12558
  25        3PZ         0.02468   0.00955   0.00830   0.03617   0.07241
  26 4   N  1S         -0.08163  -0.02014   0.00000   0.00000  -0.02370
  27        2S         -1.48410  -0.32514   0.00000   0.00000  -0.67155
  28        2PX         0.10399  -0.00647   0.00093   0.00156   0.05012
  29        2PY        -0.17526  -0.04951   0.00002   0.00003  -0.25693
  30        2PZ        -0.00103   0.00008   0.09129   0.15266  -0.00046
  31        3S          4.30672   0.95175   0.00000   0.00000   1.32037
  32        3PX        -0.49594  -0.10960  -0.00402  -0.00619  -0.51952
  33        3PY         0.89543   0.34565  -0.00008  -0.00012   0.10346
  34        3PZ         0.00488   0.00105  -0.39337  -0.60617   0.00528
  35        4XX        -0.00002   0.17166   0.00155   0.00591  -0.65416
  36        4YY        -0.35704   0.02235  -0.00001  -0.00021   0.28218
  37        4ZZ        -0.34771  -0.33750  -0.00154  -0.00570   0.15051
  38        4XY        -0.16682   0.50130  -0.00037  -0.00600   0.02790
  39        4XZ        -0.00406  -0.00610   0.08779   0.33425   0.00948
  40        4YZ         0.00171  -0.00520  -0.03781  -0.59406  -0.00032
  41 5   H  1S         -0.24421  -0.07138   0.07248   0.06780  -0.30312
  42        2S         -0.52738  -0.07569   0.17805   0.09990  -0.27507
  43        3PX        -0.07023  -0.14999   0.00507   0.17149   0.13372
  44        3PY         0.03496  -0.08769  -0.03454  -0.24272  -0.00556
  45        3PZ        -0.00327  -0.11224  -0.02116  -0.04970   0.03801
  46 6   H  1S         -0.24421  -0.07138  -0.07248  -0.06780  -0.30312
  47        2S         -0.52738  -0.07569  -0.17805  -0.09991  -0.27507
  48        3PX        -0.07015  -0.14766  -0.00550  -0.17247   0.13291
  49        3PY         0.03496  -0.08764   0.03453   0.24270  -0.00557
  50        3PZ         0.00469   0.11531  -0.02107  -0.04629  -0.04073
                          31        32        33        34        35
                           V         V         V         V         V
     Eigenvalues --     1.57299   1.62845   1.68613   1.82176   1.90962
   1 1   C  1S         -0.01300   0.00000   0.02506   0.03829   0.00000
   2        2S          0.14958   0.00000   0.31279   0.25416   0.00000
   3        2PX         0.00955  -0.00037   0.03860  -0.06818  -0.00039
   4        2PY        -0.06708  -0.00001  -0.08018   0.05667  -0.00001
   5        2PZ        -0.00008  -0.03613  -0.00038   0.00068  -0.03835
   6        3S         -0.30467   0.00000  -0.61135  -1.31758   0.00000
   7        3PX         0.08175   0.00763   0.32493  -0.20877  -0.00139
   8        3PY         0.95121   0.00015  -0.09951   0.51224  -0.00003
   9        3PZ        -0.00103   0.74728  -0.00330   0.00203  -0.13580
  10        4XX        -0.24736  -0.00111   0.66851   0.45842   0.00015
  11        4YY        -0.48927   0.00022  -0.19327  -0.27109  -0.00002
  12        4ZZ         0.62354   0.00089  -0.32547  -0.02556  -0.00012
  13        4XY        -0.25769   0.00623  -0.39263   0.32575  -0.00067
  14        4XZ         0.01032  -0.06287  -0.01164  -0.00577   0.00839
  15        4YZ         0.00289   0.61159   0.00398  -0.00327  -0.06612
  16 2   H  1S         -0.34500  -0.49996   0.26799   0.15866   0.06992
  17        2S         -0.05337  -0.11361   0.07238   0.03539  -0.00388
  18        3PX        -0.05446  -0.01488  -0.22076   0.23631  -0.03136
  19        3PY        -0.27846   0.24309   0.14174   0.09942   0.17725
  20        3PZ         0.01641  -0.34949   0.04741   0.05431  -0.09391
  21 3   H  1S         -0.34500   0.49996   0.26799   0.15866  -0.06992
  22        2S         -0.05337   0.11361   0.07238   0.03539   0.00388
  23        3PX        -0.05479   0.00775  -0.22168   0.23516   0.02944
  24        3PY        -0.27847  -0.24323   0.14172   0.09940  -0.17729
  25        3PZ        -0.01518  -0.34962  -0.04296  -0.05916  -0.09445
  26 4   N  1S         -0.06267   0.00000  -0.01950  -0.05883   0.00000
  27        2S         -0.21942   0.00000  -0.13182  -0.43760   0.00000
  28        2PX         0.02282   0.00014   0.05136  -0.02509  -0.00114
  29        2PY         0.19549   0.00000   0.03985   0.09616  -0.00002
  30        2PZ        -0.00027   0.01331  -0.00053   0.00024  -0.11174
  31        3S          1.52358   0.00000   0.51878   1.68124   0.00000
  32        3PX        -0.43624  -0.00090  -0.45898  -0.20563   0.00737
  33        3PY         0.01684  -0.00002  -0.31303   0.49693   0.00015
  34        3PZ         0.00445  -0.08846   0.00475   0.00200   0.72183
  35        4XX        -0.23301  -0.00066  -0.03479  -0.38826  -0.00151
  36        4YY        -0.24716  -0.00005  -0.23462  -0.12816  -0.00001
  37        4ZZ         0.26534   0.00071   0.21181   0.28925   0.00152
  38        4XY        -0.00046  -0.00148  -0.29257   0.58184  -0.00043
  39        4XZ         0.00587  -0.03708   0.00297   0.00787  -0.08529
  40        4YZ         0.00013  -0.14454   0.00309  -0.00584  -0.04083
  41 5   H  1S         -0.36819  -0.05893  -0.24204  -0.41470  -0.26539
  42        2S         -0.09337  -0.02595  -0.08885   0.02077  -0.14373
  43        3PX         0.04692  -0.01124   0.05891   0.20562  -0.38023
  44        3PY         0.09594   0.17449   0.21785  -0.10111  -0.32092
  45        3PZ        -0.00852   0.03332   0.08269  -0.08464  -0.48472
  46 6   H  1S         -0.36819   0.05893  -0.24204  -0.41470   0.26539
  47        2S         -0.09337   0.02595  -0.08885   0.02077   0.14373
  48        3PX         0.04708   0.01192   0.05721   0.20731   0.37025
  49        3PY         0.09595  -0.17448   0.21782  -0.10107   0.32072
  50        3PZ         0.00752   0.03316  -0.08397   0.08046  -0.49251
                          36        37        38        39        40
                           V         V         V         V         V
     Eigenvalues --     1.97890   2.08098   2.12034   2.18111   2.29538
   1 1   C  1S          0.00000   0.04350   0.00000   0.06177   0.00000
   2        2S          0.00000  -0.09595   0.00000  -0.17492   0.00000
   3        2PX        -0.00096   0.08305  -0.00038  -0.07633   0.00067
   4        2PY        -0.00002   0.29459  -0.00001   0.45392   0.00001
   5        2PZ        -0.09452  -0.00091  -0.03730   0.00069   0.06588
   6        3S          0.00000  -1.13868   0.00000  -1.36622   0.00000
   7        3PX         0.00998   0.13153  -0.00304  -0.16673  -0.00018
   8        3PY         0.00020   0.70630  -0.00006   0.96707   0.00000
   9        3PZ         0.97778  -0.00149  -0.29827   0.00150  -0.01739
  10        4XX         0.00204   0.22833   0.00323   0.48689   0.01336
  11        4YY        -0.00008  -0.20249   0.00012  -0.44967   0.00000
  12        4ZZ        -0.00196   0.13233  -0.00335   0.15378  -0.01336
  13        4XY        -0.00237   0.43764   0.00340  -0.34229   0.00014
  14        4XZ         0.11551  -0.00122   0.18290  -0.00386   0.75532
  15        4YZ        -0.23457  -0.00439   0.32960   0.00364  -0.00149
  16 2   H  1S         -0.02058   0.03883  -0.10209   0.04052   0.03006
  17        2S         -0.51988  -0.01625   0.29346  -0.06825  -0.04538
  18        3PX        -0.17361  -0.55567  -0.20393   0.36506  -0.63423
  19        3PY         0.36930  -0.13624  -0.35560  -0.16092   0.01595
  20        3PZ        -0.17119   0.08948   0.06176   0.17322   0.03026
  21 3   H  1S          0.02058   0.03883   0.10209   0.04052  -0.03006
  22        2S          0.51988  -0.01625  -0.29346  -0.06825   0.04539
  23        3PX         0.17008  -0.55738   0.20514   0.36144   0.63472
  24        3PY        -0.36937  -0.13628   0.35562  -0.16099  -0.01594
  25        3PZ        -0.17454  -0.07806   0.05744  -0.18057   0.01731
  26 4   N  1S          0.00000  -0.03750   0.00000  -0.04860   0.00000
  27        2S          0.00000  -0.30633   0.00000  -0.34044   0.00000
  28        2PX         0.00171  -0.03064   0.00157  -0.12167  -0.00151
  29        2PY         0.00003   0.02453   0.00003  -0.01606  -0.00003
  30        2PZ         0.16763   0.00031   0.15338   0.00125  -0.14798
  31        3S          0.00000   1.34188   0.00000   1.78141   0.00000
  32        3PX        -0.00895  -0.21125   0.00049  -0.19745  -0.00018
  33        3PY        -0.00018   0.99571   0.00001   1.19283   0.00000
  34        3PZ        -0.87648   0.00195   0.04824   0.00177  -0.01743
  35        4XX         0.00837  -0.09445   0.00986  -0.15326  -0.00383
  36        4YY         0.00014   0.23460   0.00004   0.63790  -0.00003
  37        4ZZ        -0.00852  -0.16411  -0.00990  -0.44877   0.00386
  38        4XY         0.00425  -0.07358   0.00117  -0.35694  -0.00095
  39        4XZ         0.47352  -0.00081   0.55782  -0.00341  -0.21661
  40        4YZ         0.40703   0.00066   0.10295   0.00339  -0.08909
  41 5   H  1S          0.54158  -0.04063   0.21867   0.02733  -0.09687
  42        2S         -0.01071   0.04334  -0.17492  -0.01313   0.15527
  43        3PX         0.05890   0.18928  -0.47823   0.10952   0.17594
  44        3PY        -0.27844  -0.34861   0.10698  -0.18434   0.09823
  45        3PZ         0.15190  -0.00008   0.02916   0.17365  -0.09342
  46 6   H  1S         -0.54158  -0.04063  -0.21867   0.02733   0.09687
  47        2S          0.01071   0.04334   0.17492  -0.01314  -0.15527
  48        3PX        -0.05579   0.18924   0.47873   0.10595  -0.17781
  49        3PY         0.27851  -0.34861  -0.10697  -0.18441  -0.09827
  50        3PZ         0.15295  -0.00364   0.01944  -0.17577  -0.08977
                          41        42        43        44        45
                           V         V         V         V         V
     Eigenvalues --     2.36993   2.48839   2.53197   2.66499   2.98194
   1 1   C  1S          0.02407   0.00000  -0.04123  -0.00486  -0.08363
   2        2S          0.04168   0.00000   0.26340   0.07599   0.54510
   3        2PX        -0.05460  -0.00464  -0.00620   0.02223  -0.00988
   4        2PY         0.26053  -0.00009  -0.00298   0.12732   0.17656
   5        2PZ         0.00050  -0.45431   0.00006  -0.00025   0.00006
   6        3S         -0.47422   0.00000   0.57014  -0.09182   0.76473
   7        3PX        -0.11648  -0.00475   0.01113  -0.09434   0.02538
   8        3PY         0.57418  -0.00010   0.30719   0.21024  -0.07824
   9        3PZ         0.00107  -0.46561  -0.00018   0.00092  -0.00024
  10        4XX         0.17586   0.00079  -0.27662  -0.00141  -0.50432
  11        4YY        -0.15196   0.00009   0.71691   0.12146  -0.05047
  12        4ZZ         0.00743  -0.00088  -0.50514   0.07124   0.32356
  13        4XY         0.36449   0.00246  -0.10250  -0.18865  -0.02504
  14        4XZ        -0.00206   0.04471  -0.00267   0.00090   0.00976
  15        4YZ        -0.00368   0.23971   0.00076   0.00191   0.00034
  16 2   H  1S          0.02024   0.06451  -0.01620  -0.07094  -0.30923
  17        2S         -0.14405   0.41630  -0.31156  -0.13786  -0.20880
  18        3PX        -0.09393  -0.01092   0.02774   0.07016  -0.04160
  19        3PY        -0.14616  -0.41927  -0.41794   0.05871   0.32758
  20        3PZ         0.21082  -0.24684   0.52432   0.24782   0.42204
  21 3   H  1S          0.02024  -0.06451  -0.01620  -0.07094  -0.30923
  22        2S         -0.14405  -0.41630  -0.31156  -0.13786  -0.20880
  23        3PX        -0.09821   0.00588   0.01704   0.06509  -0.05021
  24        3PY        -0.14625   0.41917  -0.41815   0.05861   0.32741
  25        3PZ        -0.20880  -0.24718  -0.52461  -0.24923  -0.42124
  26 4   N  1S         -0.03892   0.00000   0.06061   0.01610  -0.15510
  27        2S         -0.07913   0.00000  -0.29514  -0.05209   0.74290
  28        2PX         0.01369   0.00017   0.04255   0.03550  -0.32727
  29        2PY        -0.00663   0.00000  -0.13901  -0.01795  -0.27655
  30        2PZ        -0.00014   0.01625  -0.00041  -0.00036   0.00340
  31        3S          0.82013   0.00000  -0.17546  -0.12203   1.15459
  32        3PX         0.28874   0.00416  -0.09901   0.26490  -0.33619
  33        3PY         0.34488   0.00008  -0.16489   0.48480  -0.57061
  34        3PZ        -0.00302   0.40746   0.00104  -0.00280   0.00355
  35        4XX        -0.73852  -0.00803   0.41193  -0.31107  -0.37658
  36        4YY         0.65157   0.00023  -0.25144  -0.31824  -0.66708
  37        4ZZ        -0.08741   0.00780   0.15664   0.71548   0.14269
  38        4XY         0.13718   0.00663   0.17718  -0.52380   0.34351
  39        4XZ         0.00765  -0.45440  -0.00305   0.01221   0.00605
  40        4YZ        -0.00158   0.65843  -0.00171   0.00559  -0.00331
  41 5   H  1S         -0.00651  -0.05285  -0.07496   0.00616  -0.47039
  42        2S          0.06191  -0.16042   0.05919   0.20120  -0.50383
  43        3PX        -0.46129   0.24261   0.20228  -0.39270  -0.26768
  44        3PY         0.39842  -0.45340   0.07784  -0.45233  -0.24861
  45        3PZ        -0.04197  -0.01608   0.02219  -0.46268   0.65662
  46 6   H  1S         -0.00651   0.05285  -0.07496   0.00616  -0.47039
  47        2S          0.06191   0.16042   0.05919   0.20120  -0.50383
  48        3PX        -0.46034  -0.24289   0.20178  -0.38317  -0.28102
  49        3PY         0.39844   0.45339   0.07783  -0.45214  -0.24888
  50        3PZ         0.05121  -0.01131  -0.02635   0.47079  -0.65092
                          46        47        48        49        50
                           V         V         V         V         V
     Eigenvalues --     3.11582   3.13855   3.22328   3.61783   3.97312
   1 1   C  1S          0.12541   0.00000   0.00000  -0.13418  -0.41679
   2        2S         -0.84597   0.00000   0.00000   0.91544   2.75563
   3        2PX         0.06384   0.00441   0.00838   0.03177   0.01236
   4        2PY        -0.49994   0.00009   0.00017  -0.12149  -0.12653
   5        2PZ        -0.00055   0.43212   0.82080  -0.00030  -0.00010
   6        3S         -1.07852   0.00000   0.00000  -0.79856   1.40290
   7        3PX         0.01961   0.00037   0.00574  -0.06123   0.00510
   8        3PY        -0.09187   0.00001   0.00012   0.62785  -0.06857
   9        3PZ        -0.00018   0.03578   0.56217   0.00050  -0.00004
  10        4XX         0.71221   0.00050  -0.00272  -0.43783  -1.51313
  11        4YY         0.68021   0.00018   0.00039  -0.39095  -1.93335
  12        4ZZ        -0.58654  -0.00068   0.00233  -0.86953  -2.12485
  13        4XY         0.00382   0.00522   0.01128  -0.06060   0.05662
  14        4XZ        -0.01531   0.02803  -0.15382  -0.00508  -0.00722
  15        4YZ        -0.00034   0.51121   1.10861   0.00051  -0.00062
  16 2   H  1S          0.44618  -0.28598  -0.64618   0.24885   0.39337
  17        2S          0.40223  -0.12443  -0.40404  -0.07429  -0.27214
  18        3PX         0.04742  -0.06463  -0.00155   0.02480   0.01844
  19        3PY        -0.53831   0.19648   0.30088  -0.19732  -0.20898
  20        3PZ        -0.52010   0.39627   0.78959  -0.11227  -0.34106
  21 3   H  1S          0.44618   0.28598   0.64618   0.24885   0.39337
  22        2S          0.40223   0.12443   0.40404  -0.07429  -0.27214
  23        3PX         0.05803   0.07270   0.01767   0.02708   0.02540
  24        3PY        -0.53809  -0.19632  -0.30056  -0.19728  -0.20884
  25        3PZ         0.51924   0.39495   0.78952   0.11182   0.34070
  26 4   N  1S         -0.08099   0.00000   0.00000  -0.44210   0.13483
  27        2S          0.19140   0.00000   0.00000   0.64168  -0.31978
  28        2PX        -0.22651   0.00823  -0.00383   0.32616  -0.14247
  29        2PY        -0.33889   0.00016  -0.00008   0.15003   0.02758
  30        2PZ         0.00238   0.80592  -0.37479  -0.00336   0.00145
  31        3S          1.26130   0.00000   0.00000   3.36206  -0.94868
  32        3PX        -0.25909   0.01068  -0.00435  -0.19598   0.00765
  33        3PY        -0.14174   0.00021  -0.00009   0.71982  -0.04525
  34        3PZ         0.00267   1.04664  -0.42584   0.00185  -0.00007
  35        4XX        -0.31606  -0.01704   0.00610  -1.47355   0.36948
[...]
 ! R5    R(4,6)                  1.021          -DE/DX =    0.0                 !
 ! A1    A(2,1,3)              120.515          -DE/DX =    0.0                 !
 ! A2    A(2,1,4)              119.7543         -DE/DX =    0.0                 !
 ! A3    A(3,1,4)              119.7307         -DE/DX =    0.0                 !
 ! A4    A(1,4,5)              121.7905         -DE/DX =    0.0                 !
 ! A5    A(1,4,6)              121.8023         -DE/DX =    0.0                 !
 ! A6    A(5,4,6)              116.4071         -DE/DX =    0.0                 !
 ! D1    D(2,1,4,5)             -0.0235         -DE/DX =    0.0                 !
 ! D2    D(2,1,4,6)            179.9785         -DE/DX =    0.0                 !
 ! D3    D(3,1,4,5)           -180.0092         -DE/DX =    0.0                 !
 ! D4    D(3,1,4,6)             -0.0072         -DE/DX =    0.0                 !
 --------------------------------------------------------------------------------
 GradGradGradGradGradGradGradGradGradGradGradGradGradGradGradGradGradGrad

                          Input orientation:                          
 ---------------------------------------------------------------------
 Center     Atomic      Atomic             Coordinates (Angstroms)
 Number     Number       Type             X           Y           Z
 ---------------------------------------------------------------------
      1          6    20001004        2.319566    0.725696   -1.677542
      2          1    20001035        2.366841    1.265532   -0.734681
      3          1    20001035        2.360446    1.261223   -2.623051
      4          7    20001020        2.214862   -0.548108   -1.674576
      5          1    20001029        2.173972   -1.082342   -0.805628
      6          1    20001029        2.167645   -1.086113   -2.541029
      7          8    20001021        4.393512   -2.196261   -3.857290
      8          1    20001030        5.347591   -2.122757   -3.834448
      9          1    20001030        4.181597   -2.793609   -3.140018
     10          8    20001021        5.706143    0.772158   -2.539983
     11          1    20001030        6.534593    0.774487   -2.060500
     12          1    20001030        5.256735    1.564663   -2.246388
     13          8    20001021        3.811117    3.007402   -4.455867
     14          1    20001030        4.488218    3.269373   -3.832064
     15          1    20001030        3.018972    3.449029   -4.149757
     16          8    20001021        1.080020    3.990887   -2.537377
     17          1    20001030        0.553445    3.192656   -2.579526
     18          1    20001030        0.495066    4.644295   -2.153819
     19          8    20001021       -1.046426   -1.131180   -0.529562
     20          1    20001030       -0.405374   -1.841631   -0.507996
     21          1    20001030       -1.382694   -1.084074    0.365385
     22          8    20001021        4.833216    0.486815    0.828292
     23          1    20001030        5.004049   -0.371265    0.440036
     24          1    20001030        3.920338    0.443975    1.112973
     25          8    20001021       -0.740919    1.051531   -3.306988
     26          1    20001030       -0.666557    0.190396   -3.718261
     27          1    20001030       -0.009875    1.553499   -3.667312
     28          8    20001021        2.046066    0.023895   -5.265980
     29          1    20001030        2.958263   -0.265338   -5.287670
     30          1    20001030        2.093018    0.947737   -5.019929
     31          8    20001021        1.501275   -0.212541    1.796135
     32          1    20001030        1.726982    0.716124    1.849807
     33          1    20001030        0.638095   -0.226208    1.382663
     34          8    20001021        4.259919    3.583181   -0.972142
     35          1    20001030        4.274098    4.528996   -0.825662
     36          1    20001030        4.652637    3.212058   -0.182031
     37          8    20001021        5.475134    0.359883   -6.001178
     38          1    20001030        6.395495    0.299406   -6.257128
     39          1    20001030        5.467746    0.987703   -5.278661
     40          8    20001021       -0.384445    2.218499    0.072943
     41          1    20001030       -0.606110    1.287320    0.074267
     42          1    20001030        0.501205    2.254849    0.434223
 ---------------------------------------------------------------------
                    Distance matrix (angstroms):
                    1          2          3          4          5
     1  C    0.000000
     2  H    1.087495   0.000000
     3  H    1.087404   1.888385   0.000000
     4  N    1.278104   2.048363   2.048043   0.000000
     5  H    2.012568   2.356850   2.971547   1.020856   0.000000
     6  H    2.012794   2.972004   2.356669   1.020990   1.735416
     7  O    4.194089   5.083512   4.196534   3.496737   3.934439
     8  H    4.683467   5.474845   4.673526   4.118078   4.508666
     9  H    4.241639   5.055255   4.474987   3.325333   3.522551
    10  O    3.494978   3.827985   3.382273   3.831590   4.350102
    11  H    4.232669   4.401031   4.239914   4.534124   4.902808
    12  H    3.107155   3.275091   2.936399   3.747501   4.311131
    13  O    3.892299   4.355143   2.917670   4.788033   5.721056
    14  H    3.976846   4.255513   3.165721   4.939237   5.783810
    15  H    3.744003   4.105566   2.747905   4.769719   5.694781
    16  O    3.596841   3.511863   3.016272   4.757601   5.471136
    17  H    3.165225   3.225782   2.645295   4.191964   4.903920
    18  H    4.348685   4.115038   3.891658   5.490758   6.118065
    19  O    4.011951   4.175727   4.659729   3.505286   3.232579
    20  H    3.922283   4.170255   4.663789   3.146386   2.705205
    21  H    4.599516   4.559584   5.333129   4.170265   3.744483
    22  O    3.557345   3.021967   4.315792   3.767120   3.493354
    23  H    3.590809   3.318724   4.363044   3.504629   3.172798
    24  H    3.229367   2.549928   4.130258   3.415159   3.010061
    25  O    3.482504   4.039893   3.182799   3.736343   4.393951
    26  H    3.656229   4.388527   3.392478   3.608963   4.262851
    27  H    3.173442   3.785767   2.606594   3.652014   4.461623
    28  O    3.666636   4.709271   2.935114   3.640586   4.597267
    29  H    3.797776   4.839736   3.128573   3.699602   4.622911
    30  H    3.357407   4.305732   2.432040   3.666577   4.678473
    31  O    3.690030   3.055967   4.737020   3.559163   2.824579
    32  H    3.576792   2.718611   4.550260   3.775921   3.238150
    33  H    3.619160   3.114000   4.607026   3.454927   2.807223
    34  O    3.525306   3.001937   3.424176   4.662963   5.113316
    35  H    4.360159   3.781019   4.191779   5.544195   5.991497
    36  H    3.723140   3.052744   3.875367   4.723271   4.997452
    37  O    5.365189   6.182044   4.682461   5.493024   6.322295
    38  H    6.145529   6.903685   5.514819   6.260652   7.032022
    39  H    4.790380   5.508226   4.096631   5.092092   5.928073
    40  O    3.550258   3.021586   3.964743   4.179035   4.267661
    41  H    3.455986   3.081122   4.009571   3.792773   3.757442
    42  H    3.178726   2.413645   3.713622   3.903872   3.933475
                    6          7          8          9         10
     6  H    0.000000
     7  O    2.814153   0.000000
     8  H    3.586031   0.957179   0.000000
     9  H    2.707458   0.957190   1.513875   0.000000
    10  O    3.996766   3.502829   3.191353   3.924153   0.000000
    11  H    4.771056   4.078974   3.598596   4.408317   0.957204
    12  H    4.081164   4.181472   4.015876   4.577011   0.957199
    13  O    4.808791   5.270254   5.391238   5.959902   3.501150
    14  H    5.101184   5.466512   5.460183   6.110048   3.064130
    15  H    4.886745   5.817576   6.047039   6.429758   4.120424
    16  O    5.192193   7.141583   7.567774   7.484139   5.635711
    17  H    4.573291   6.739379   7.267207   7.022322   5.693038
    18  H    5.982059   8.055613   8.494970   8.359756   6.503683
    19  O    3.791872   6.465378   7.265601   6.075391   7.298060
    20  H    3.365184   5.862836   6.651386   5.373463   6.950648
    21  H    4.588263   7.241030   8.000888   6.794976   7.882790
    22  O    4.575117   5.417280   5.368016   5.189728   3.491232
    23  H    4.176475   4.708543   4.632165   4.400109   3.268159
    24  H    4.331840   5.647854   5.753446   5.351462   4.079325
    25  O    3.689982   6.100277   6.886529   6.248532   6.498535
    26  H    3.323861   5.596406   6.444700   5.722171   6.506773
    27  H    3.602452   5.786762   6.499634   6.061669   5.878284
    28  O    2.944870   3.524770   4.190164   4.125353   4.624621
    29  H    2.973682   2.798998   3.357194   3.535691   4.022067
    30  H    3.207345   4.065554   4.628774   4.679092   4.385845
    31  O    4.474167   6.652924   7.081422   6.181557   6.119842
    32  H    4.766727   6.939980   7.312921   6.575843   5.925126
    33  H    4.298176   6.741021   7.279732   6.293059   6.486062
    34  O    5.351759   6.460950   6.475612   6.735671   3.528674
    35  H    6.237714   7.377948   7.379092   7.680192   4.370753
    36  H    5.496756   6.544050   6.502566   6.711155   3.552876
    37  O    5.000302   3.507140   3.297649   4.450167   3.493309
    38  H    5.796876   3.999439   3.582507   4.917770   3.809969
    39  H    4.762983   3.648548   3.431494   4.530595   2.757471
    40  O    4.926101   7.600376   8.183547   7.502871   6.783402
    41  H    4.490733   7.251807   7.896407   7.064542   6.851586
    42  H    4.774010   7.306129   7.802080   7.197736   6.175407
                   11         12         13         14         15
    11  H    0.000000
    12  H    1.513887   0.000000
    13  O    4.259227   3.008837   0.000000
    14  H    3.681106   2.451738   0.957196   0.000000
    15  H    4.886487   3.490161   0.957200   1.513898   0.000000
    16  O    6.350197   4.839027   3.479474   3.716532   2.579324
    17  H    6.472331   4.988214   3.763961   4.130033   2.934310
    18  H    7.173563   5.671525   4.356035   4.544466   3.432569
    19  O    7.965375   7.067171   7.492627   7.804080   7.114182
    20  H    7.577433   6.832593   7.541724   7.817866   7.278712
    21  H    8.486613   7.610465   8.182928   8.428445   7.765964
    22  O    3.364901   3.285542   5.943095   5.438802   6.070186
    23  H    3.147696   3.320925   6.066988   5.636591   6.292962
    24  H    4.124864   3.785130   6.131481   5.723526   6.126919
    25  O    7.386715   6.112285   5.085901   5.704244   4.538175
    26  H    7.412550   6.256229   5.341268   6.005393   4.938421
    27  H    6.783713   5.454936   4.163608   4.817074   3.605510
    28  O    5.566450   4.669079   3.559916   4.307360   3.731493
    29  H    4.928082   4.228625   3.482826   4.117490   3.885235
    30  H    5.340021   4.252321   2.740848   3.540904   2.805540
    31  O    6.417332   5.796890   7.402089   7.261003   7.145917
    32  H    6.197340   5.473389   7.025318   6.813747   6.718092
    33  H    6.901119   6.140770   7.390042   7.364503   7.055750
    34  O    3.774576   2.586844   3.559394   2.886130   3.413969
    35  H    4.553131   3.430934   3.963330   3.266641   3.713660
    36  H    3.607237   2.709320   4.360701   3.654183   4.297425
    37  O    4.101621   3.949385   3.488021   3.760877   4.359279
    38  H    4.225723   4.357027   4.154129   4.282447   5.075632
    39  H    3.397085   3.093879   2.738721   2.873697   3.650896
    40  O    7.383078   6.134306   6.223763   6.332160   5.561353
    41  H    7.470600   6.311522   6.556881   6.718640   5.971313
    42  H    6.694541   5.502462   5.952716   5.926780   5.364520
                   16         17         18         19         20
    16  O    0.000000
    17  H    0.957200   0.000000
    18  H    0.957199   1.513899   0.000000
    19  O    5.898192   5.045542   6.194395   0.000000
    20  H    6.351618   5.527623   6.751797   0.957159   0.000000
    21  H    6.343990   5.541800   6.533497   0.957196   1.513883
    22  O    6.139440   6.103379   6.707993   6.247549   5.886438
    23  H    6.579617   6.451912   7.225985   6.174613   5.685297
    24  H    5.828640   5.703137   6.328278   5.463312   5.153962
    25  O    3.542306   2.605569   3.970568   3.545654   4.039472
    26  H    4.346119   3.434922   4.861488   3.472559   3.808301
    27  H    2.899221   2.046324   3.478310   4.257630   4.654525
    28  O    4.910758   4.414295   5.782668   5.773333   5.668171
    29  H    5.404383   5.007486   6.323990   6.279078   6.053432
    30  H    4.055859   3.655888   4.942932   5.860154   5.863453
    31  O    6.051908   5.624958   6.340619   3.569810   3.405622
    32  H    5.512714   5.208588   5.742575   4.094597   4.080232
    33  H    5.774591   5.233998   6.020712   2.704291   2.696852
    34  O    3.567624   4.058836   4.086128   7.111848   7.170005
    35  H    3.663559   4.324940   4.007291   7.773883   7.910959
    36  H    4.349462   4.748867   4.819196   7.173829   7.157479
    37  O    6.670767   6.629882   7.613109   8.642488   8.342787
    38  H    7.464440   7.484999   8.398230   9.499147   9.159061
    39  H    5.982131   6.024741   6.918298   8.335350   8.078238
    40  O    3.478475   2.977282   3.408298   3.467215   4.101534
    41  H    4.119829   3.466625   4.176869   2.531330   3.188990
    42  H    3.489879   3.156722   3.522421   3.845678   4.300094
                   21         22         23         24         25
    21  H    0.000000
    22  O    6.428025   0.000000
    23  H    6.426831   0.957199   0.000000
    24  H    5.569198   0.957196   1.513900   0.000000
    25  O    4.296395   6.963507   7.004941   6.452325   0.000000
    26  H    4.337429   7.141884   7.054266   6.666688   0.957199
    27  H    5.010396   6.693564   6.761247   6.287189   0.957199
    28  O    6.685527   6.717340   6.439289   6.661863   3.558226
    29  H    7.174348   6.440976   6.083015   6.511293   4.397863
    30  H    6.723871   6.474784   6.326538   6.419141   3.313026
    31  O    3.335250   3.539442   3.759472   2.597997   5.715520
    32  H    3.887712   3.277920   3.729482   2.329763   5.726741
    33  H    2.419582   4.291242   4.468908   3.360803   5.052437
    34  O    7.443878   3.627356   4.264460   3.783864   6.071996
    35  H    8.057571   4.403113   5.113451   4.535510   6.587878
    36  H    7.428434   2.912098   3.653856   3.142544   6.597248
    37  O    9.468260   6.860746   6.499672   7.282555   6.810019
    38  H   10.308828   7.258032   6.872985   7.775969   7.758701
    39  H    9.114606   6.160227   5.896210   6.598719   6.514529
    40  O    3.462514   5.549168   5.989783   4.770928   3.593441
    41  H    2.512238   5.549381   5.861619   4.720050   3.392146
    42  H    3.834348   4.695482   5.212688   3.928159   4.121590
                   26         27         28         29         30
    26  H    0.000000
    27  H    1.513895   0.000000
    28  O    3.127536   3.020319   0.000000
    29  H    3.976186   3.839736   0.957199   0.000000
    30  H    3.143749   2.572680   0.957199   1.513897   0.000000
    31  O    5.938890   5.937316   7.087043   7.232281   6.939390
    32  H    6.083486   5.844353   7.156495   7.309097   6.883379
    33  H    5.281581   5.393465   6.800690   7.062439   6.669942
    34  O    6.581970   5.441938   6.000559   5.926988   5.293922
    35  H    7.183359   5.939779   6.706451   6.680312   5.930801
    36  H    7.066059   6.052852   6.542563   6.405523   5.923180
    37  O    6.554449   6.079225   3.523054   2.689727   3.570312
    38  H    7.505352   7.022013   4.469431   3.615709   4.523528
    39  H    6.379672   5.737674   3.554853   2.804941   3.384868
    40  O    4.308830   3.817333   6.263208   6.788174   5.804309
    41  H    3.948438   3.798126   6.094959   6.623131   5.775071
    42  H    4.782129   4.192336   6.313166   6.717777   5.830110
                   31         32         33         34         35
    31  O    0.000000
    32  H    0.957206   0.000000
    33  H    0.957196   1.513899   0.000000
    34  O    5.448025   4.753859   5.759701   0.000000
    35  H    6.086423   5.308854   6.380375   0.957196   0.000000
    36  H    5.056887   4.349426   5.512394   0.957201   1.513895
    37  O    8.770252   8.707096   8.846556   6.095704   6.753514
    38  H    9.437719   9.364351   9.580727   6.578369   7.203512
    39  H    8.199160   8.054944   8.316991   5.171214   5.813325
    40  O    3.526370   3.142053   2.955934   4.952240   5.277112
    41  H    3.107327   2.986993   2.355996   5.481258   5.927459
    42  H    2.990478   2.423651   2.659685   4.227322   4.581896
                   36         37         38         39         40
    36  H    0.000000
    37  O    6.532524   0.000000
    38  H    6.959016   0.957201   0.000000
    39  H    5.620302   0.957206   1.513892   0.000000
    40  O    5.140464   8.641994   9.472080   8.025127   0.000000
    41  H    5.605776   8.645964   9.491313   8.101564   0.957199
    42  H    4.304695   8.351362   9.129107   7.675234   0.957194
                   41         42
    41  H    0.000000
    42  H    1.513879   0.000000
 Symmetry turned off by external request.
 Stoichiometry    CH28NO12(1+)
 Framework group  C1[X(CH28NO12)]
 Deg. of freedom   120
 Full point group                 C1      NOp   1
 Rotational constants (GHZ):      0.3136915      0.2142173      0.2056796
 1\1\GINC-EAM\FOpt\ONIOM(B3LYP/6-31G(d,p):AMBER)\Mixed\C1H28N1O12(1+)\D
 ULIKAI\31-Mar-2015\0\\# opt ONIOM(b3lyp/6-31g(d,p):amber)=(EmbedCharge
 ,inputfiles) nosymm geom=connectivity pop=full\\Title Card Required\\1
 ,1\C,2.3195659655,0.7256958553,-1.6775421283\H,2.3668414933,1.26553166
 5,-0.7346810876\H,2.3604463987,1.2612230394,-2.6230506785\N,2.21486160
 79,-0.5481083963,-1.6745756639\H,2.1739724033,-1.0823415316,-0.8056282
 551\H,2.1676454513,-1.0861131218,-2.5410289666\O,4.3935122295,-2.19626
 09455,-3.8572901676\H,5.347591485,-2.1227573686,-3.8344477084\H,4.1815
 968932,-2.7936089754,-3.1400178321\O,5.706143161,0.7721579996,-2.53998
 326\H,6.5345929969,0.7744873149,-2.06049997\H,5.2567347892,1.564663097
 4,-2.2463883808\O,3.8111170445,3.007401567,-4.4558670164\H,4.488217642
 4,3.2693728026,-3.8320635107\H,3.0189722764,3.4490286111,-4.1497567004
 \O,1.0800200396,3.9908870558,-2.5373769845\H,0.5534445129,3.1926558876
 ,-2.5795261967\H,0.4950658932,4.6442950831,-2.1538194938\O,-1.04642645
 27,-1.1311798511,-0.5295615104\H,-0.4053744774,-1.8416307501,-0.507995
 6169\H,-1.3826941083,-1.0840735203,0.365385411\O,4.8332155048,0.486815
 3316,0.8282923176\H,5.0040494675,-0.3712649678,0.4400355586\H,3.920337
 8703,0.4439753929,1.112973244\O,-0.7409192447,1.0515313983,-3.30698779
 3\H,-0.6665568005,0.1903958456,-3.7182611175\H,-0.0098750021,1.5534992
 086,-3.6673117345\O,2.0460659691,0.0238948872,-5.265980452\H,2.9582633
 257,-0.2653376016,-5.2876697336\H,2.0930178433,0.9477368467,-5.0199293
 433\O,1.5012747207,-0.2125406096,1.7961350255\H,1.72698235,0.716124396
 7,1.8498068736\H,0.6380954829,-0.2262083178,1.3826626962\O,4.259919038
 ,3.5831806969,-0.9721416935\H,4.2740979657,4.528996408,-0.8256624942\H
 ,4.6526368927,3.2120584148,-0.182031416\O,5.4751338773,0.3598829381,-6
 .0011780978\H,6.395495386,0.2994062593,-6.2571281718\H,5.46774597,0.98
 77030584,-5.2786609307\O,-0.3844450475,2.2184986126,0.0729427455\H,-0.
 6061100441,1.2873202098,0.0742670223\H,0.5012053677,2.2548494331,0.434
 2225077\\Version=EM64L-G09RevD.01\HF=0.0009566\RMSD=4.078e-09\RMSF=3.0
 67e-05\Dipole=-0.6221108,-1.78181,0.7622835\Quadrupole=5.7340752,-6.99
 19484,1.2578732,0.1469754,-13.4931344,0.2217242\PG=C01 [X(C1H28N1O12)]
 \\@


 BRING ME INTO THE COMPANY OF THOSE WHO SEEK TRUTH,
 AND DELIVER ME FROM THOSE WHO HAVE FOUND IT.
 Job cpu time:       0 days  0 hours  2 minutes 18.3 seconds.
 File lengths (MBytes):  RWF=      5 Int=      0 D2E=      0 Chk=      3 Scr=      1
 Normal termination of Gaussian 09 at Tue Mar 31 10:28:51 2015.
