 Entering Gaussian System, Link 0=g09
 Input=all.gjf
 Output=all.log
 Initial command:
 /opt/g09_D01_em64t/g09/l1.exe "/tmp/Gau-22942.inp" -scrdir="/tmp/"
 Entering Link 1 = /opt/g09_D01_em64t/g09/l1.exe PID=     22943.
  
 Copyright (c) 1988,1990,1992,1993,1995,1998,2003,2009,2013,
            Gaussian, Inc.  All Rights Reserved.
  
 This is part of the Gaussian(R) 09 program.  It is based on
 the Gaussian(R) 03 system (copyright 2003, Gaussian, Inc.),
 the Gaussian(R) 98 system (copyright 1998, Gaussian, Inc.),
 the Gaussian(R) 94 system (copyright 1995, Gaussian, Inc.),
 the Gaussian 92(TM) system (copyright 1992, Gaussian, Inc.),
 the Gaussian 90(TM) system (copyright 1990, Gaussian, Inc.),
 the Gaussian 88(TM) system (copyright 1988, Gaussian, Inc.),
 the Gaussian 86(TM) system (copyright 1986, Carnegie Mellon
 University), and the Gaussian 82(TM) system (copyright 1983,
 Carnegie Mellon University). Gaussian is a federally registered
 trademark of Gaussian, Inc.
  
 This software contains proprietary and confidential information,
 including trade secrets, belonging to Gaussian, Inc.
  
 This software is provided under written license and may be
 used, copied, transmitted, or stored only in accord with that
 written license.
  
 The following legend is applicable only to US Government
 contracts under FAR:
  
                    RESTRICTED RIGHTS LEGEND
  
 Use, reproduction and disclosure by the US Government is
 subject to restrictions as set forth in subparagraphs (a)
 and (c) of the Commercial Computer Software - Restricted
 Rights clause in FAR 52.227-19.
  
 Gaussian, Inc.
 340 Quinnipiac St., Bldg. 40, Wallingford CT 06492
  
  
 ---------------------------------------------------------------
 Warning -- This program may not be used in any manner that
 competes with the business of Gaussian, Inc. or will provide
 assistance to any competitor of Gaussian, Inc.  The licensee
 of this program is prohibited from giving any competitor of
 Gaussian, Inc. access to this program.  By using this program,
 the user acknowledges that Gaussian, Inc. is engaged in the
 business of creating and licensing software in the field of
 computational chemistry and represents and warrants to the
 licensee that it is not a competitor of Gaussian, Inc. and that
 it will not use this program in any manner prohibited above.
 ---------------------------------------------------------------
  

 Cite this work as:
 Gaussian 09, Revision D.01,
 M. J. Frisch, G. W. Trucks, H. B. Schlegel, G. E. Scuseria, 
 M. A. Robb, J. R. Cheeseman, G. Scalmani, V. Barone, B. Mennucci, 
 G. A. Petersson, H. Nakatsuji, M. Caricato, X. Li, H. P. Hratchian, 
 A. F. Izmaylov, J. Bloino, G. Zheng, J. L. Sonnenberg, M. Hada, 
 M. Ehara, K. Toyota, R. Fukuda, J. Hasegawa, M. Ishida, T. Nakajima, 
 Y. Honda, O. Kitao, H. Nakai, T. Vreven, J. A. Montgomery, Jr., 
 J. E. Peralta, F. Ogliaro, M. Bearpark, J. J. Heyd, E. Brothers, 
 K. N. Kudin, V. N. Staroverov, T. Keith, R. Kobayashi, J. Normand, 
 K. Raghavachari, A. Rendell, J. C. Burant, S. S. Iyengar, J. Tomasi, 
 M. Cossi, N. Rega, J. M. Millam, M. Klene, J. E. Knox, J. B. Cross, 
 V. Bakken, C. Adamo, J. Jaramillo, R. Gomperts, R. E. Stratmann, 
 O. Yazyev, A. J. Austin, R. Cammi, C. Pomelli, J. W. Ochterski, 
 R. L. Martin, K. Morokuma, V. G. Zakrzewski, G. A. Voth, 
 P. Salvador, J. J. Dannenberg, S. Dapprich, A. D. Daniels, 
 O. Farkas, J. B. Foresman, J. V. Ortiz, J. Cioslowski, 
 and D. J. Fox, Gaussian, Inc., Wallingford CT, 2013.
 
 ******************************************
 Gaussian 09:  EM64L-G09RevD.01 24-Apr-2013
                21-Mar-2015 
 ******************************************
 %chk=only.chk
 %mem=1GB
 ----------------------------------------------------------------------
 #p force ONIOM(b3lyp/6-31g(d,p) td(singlet,nstates=3,root=1):pm6)=(Emb
 edCharge,inputfiles) nosymm geom=connectivity
 ----------------------------------------------------------------------
 1/10=7,30=1,38=1,52=12,57=2,74=500/1,3;
 2/12=2,15=1,17=6,18=5,40=1/2;
 1/10=7,30=1,38=1,52=12,53=3172,74=500,118=1/20;
 3/5=2,16=1,25=1,41=3900000,71=1/1,2,3;
 4/35=1/1;
 5/5=2,35=1,38=5/2;
 6/7=2,8=2,9=2,10=2,28=1/1;
 7/7=1,30=1,33=-1/1,2,3,16;
 1/10=7,30=1,52=12,53=2032,74=500,118=1/20;
 3/5=1,6=6,7=101,11=9,16=1,25=1,30=1,71=1,74=-5/1,2,8,3;
 4//1;
 5/5=2,38=5/2;
 8/6=1,10=2,107=1,108=3/1;
 9/8=1,15=2,41=3,42=1,48=1,70=2/14;
 10/5=4,31=1/2;
 6/7=2,8=2,9=2,10=2,18=1/1;
 7/7=1,12=6,13=5,14=1,30=1,33=-1/1,2,3,16;
 1/10=7,30=1,52=12,53=1022,74=500,118=1/20;
 3/5=2,16=1,25=1,41=3900000,71=1/1,2,3;
 4/35=1/1;
 5/5=2,35=1,38=5/2;
 6/7=2,8=2,9=2,10=2,28=1/1;
 7/7=1,30=1,33=-1/1,2,3,16;
 1/10=7,30=1,52=12,53=3015,74=500/20;
 7/9=1,29=1,44=-1/16;
 1/10=7,30=1,52=12,74=500/3;
 99//99;
 Leave Link    1 at Sat Mar 21 09:45:15 2015, MaxMem=   134217728 cpu:         0.0
 (Enter /opt/g09_D01_em64t/g09/l101.exe)
 -------------------
 ch2nh2 iop(9/40=20)
 -------------------
 Symbolic Z-matrix:
 Charge =  0 Multiplicity = 1 for low   level calculation on real  system.
 Charge =  0 Multiplicity = 1 for high  level calculation on model system.
 Charge =  0 Multiplicity = 1 for low   level calculation on model system.
 O-O_3--0.834000      0    -0.36871  -2.19424   0.       H 
 H-H_-0.417000        0     0.59129  -2.19424   0.       H 
 H-H_-0.417000        0    -0.68916  -1.28931   0.       H 
 O-O_3--0.834000      0    -2.34712   0.34173   0.       M 
 H-H_-0.417000        0    -1.38712   0.34173   0.       M 
 H-H_-0.417000        0    -2.66758   1.24666   0.       M 
 
 NAtoms=      6 NQM=        6 NQMF=       0 NMMI=      0 NMMIF=      0
                NMic=       0 NMicF=      0.
                    Isotopes and Nuclear Properties:
 (Nuclear quadrupole moments (NQMom) in fm**2, nuclear magnetic moments (NMagM)
  in nuclear magnetons)

  Atom         1           2           3           4           5           6
 IAtWgt=          16           1           1          16           1           1
 AtmWgt=  15.9949146   1.0078250   1.0078250  15.9949146   1.0078250   1.0078250
 NucSpn=           0           1           1           0           1           1
 AtZEff=   0.0000000   0.0000000   0.0000000   0.0000000   0.0000000   0.0000000
 NQMom=    0.0000000   0.0000000   0.0000000   0.0000000   0.0000000   0.0000000
 NMagM=    0.0000000   2.7928460   2.7928460   0.0000000   2.7928460   2.7928460
 AtZNuc=   8.0000000   1.0000000   1.0000000   8.0000000   1.0000000   1.0000000
 MM Charge=              0.0000 electrons
 MM Dipole moment (Debye):
    X=              2.5619    Y=              3.6251    Z=              0.0000  Tot=              4.4390
 MM Quadrupole moment (Debye-Ang):
   XX=             -2.8546   YY=             -3.4350   ZZ=              0.0000
   XY=             -8.4572   XZ=              0.0000   YZ=              0.0000
 MM Traceless Quadrupole moment (Debye-Ang):
   XX=             -0.7581   YY=             -1.3385   ZZ=              2.0965
   XY=             -8.4572   XZ=              0.0000   YZ=              0.0000
 MM Octapole moment (Debye-Ang**2):
  XXX=              8.3899  YYY=             20.6684  ZZZ=              0.0000  XYY=              2.9885
  XXY=              9.9759  XXZ=              0.0000  XZZ=              0.0000  YZZ=              0.0000
  YYZ=              0.0000  XYZ=              0.0000
 MM Hexadecapole moment (Debye-Ang**3):
 XXXX=            -12.1133 YYYY=            -36.0856 ZZZZ=              0.0000 XXXY=            -32.0291
 XXXZ=              0.0000 YYYX=            -35.2452 YYYZ=              0.0000 ZZZX=              0.0000
 ZZZY=              0.0000 XXYY=             22.3553 XXZZ=              0.0000 YYZZ=              0.0000
 XXYZ=              0.0000 YYXZ=              0.0000 ZZXY=              0.0000
 Leave Link  101 at Sat Mar 21 09:45:15 2015, MaxMem=   134217728 cpu:         0.1
 (Enter /opt/g09_D01_em64t/g09/l103.exe)

 GradGradGradGradGradGradGradGradGradGradGradGradGradGradGradGradGradGrad
 Berny optimization.
 Initialization pass.
 Trust Radius=3.00D-01 FncErr=1.00D-07 GrdErr=1.00D-07
 Number of steps in this run=      2 maximum allowed number of steps=      2.
 GradGradGradGradGradGradGradGradGradGradGradGradGradGradGradGradGradGrad

 Leave Link  103 at Sat Mar 21 09:45:15 2015, MaxMem=   134217728 cpu:         0.0
 (Enter /opt/g09_D01_em64t/g09/l202.exe)
                          Input orientation:                          
 ---------------------------------------------------------------------
 Center     Atomic      Atomic             Coordinates (Angstroms)
 Number     Number       Type             X           Y           Z
 ---------------------------------------------------------------------
      1          8    10081003       -0.368705   -2.194245    0.000000
      2          1    10011000        0.591295   -2.194245    0.000000
      3          1    10011000       -0.689160   -1.289309    0.000000
      4          8    10081003       -2.347122    0.341727    0.000000
      5          1    10011000       -1.387122    0.341727    0.000000
      6          1    10011000       -2.667577    1.246662    0.000000
 ---------------------------------------------------------------------
                    Distance matrix (angstroms):
                    1          2          3          4          5
     1  O    0.000000
     2  H    0.960000   0.000000
     3  H    0.960000   1.567952   0.000000
     4  O    3.216409   3.881423   2.325751   0.000000
     5  H    2.732823   3.216409   1.774099   0.960000   0.000000
     6  H    4.138194   4.739207   3.216409   0.960000   1.567952
                    6
     6  H    0.000000
 Symmetry turned off by external request.
 Stoichiometry    H4O2
 Framework group  CS[SG(H4O2)]
 Deg. of freedom     9
 Full point group                 CS      NOp   2
 Rotational constants (GHZ):    416.7917648      5.2904637      5.2241519
 Leave Link  202 at Sat Mar 21 09:45:15 2015, MaxMem=   134217728 cpu:         0.0
 (Enter /opt/g09_D01_em64t/g09/l120.exe)
 ONIOM: saving gridpoint 17
 ONIOM: generating point  3 -- low level on real system.
 ChrgS2: IScale=     5     5     5     5     0     0 (distance 6..1 bonds)
 ChrgS2:  Scale=  1.00  1.00  1.00  1.00  0.00  0.00 (distance 6..1 bonds)

 --------------------------------------------------------------------------------
 #P Test IOp(2/15=1,5/32=2,5/38=1) PM6

 ch2nh2 iop(9/40=20)
 Point  3 -- low level on real system.

 0,1
  O-O_3--0.834000                                  -0.368705030000     -2.194244570000      0.000000000000
  H-H_-0.417000                                     0.591294970000     -2.194244570000      0.000000000000
  H-H_-0.417000                                    -0.689159620000     -1.289308740000      0.000000000000
  O-O_3--0.834000                                  -2.347122270000      0.341726610000      0.000000000000
  H-H_-0.417000                                    -1.387122270000      0.341726610000      0.000000000000
  H-H_-0.417000                                    -2.667576860000      1.246662440000      0.000000000000

 1 2 1.000 3 1.000
 2 1 1.000
 3 1 1.000
 4 5 1.000 6 1.000
 5 4 1.000
 6 4 1.000
 
 --------------------------------------------------------------------------------

 Leave Link  120 at Sat Mar 21 09:45:15 2015, MaxMem=   134217728 cpu:         0.0
 (Enter /opt/g09_D01_em64t/g09/l301.exe)
 Standard basis: VSTO-6G (5D, 7F)
 Ernie: Thresh=  0.10000D-02 Tol=  0.10000D-05 Strict=F.
  NNHCO=     0 NNPyr=     0 NCTC=     0               EPep=         0.000000000
    EC=        19.127277979  ECS=         1.040723482   EG=         0.004477494
   EHC=         0.001275028  EAt=       -22.756735606  AtH=         0.521945909
 EPDDG=         0.000000000  ECC=        20.173753983 EAtT=        23.278681515
    12 basis functions,    72 primitive gaussians,    12 cartesian basis functions
     8 alpha electrons        8 beta electrons
       nuclear repulsion energy        43.4524354984 Hartrees.
 IExCor=    0 DFT=F Ex=HF Corr=None ExCW=0 ScaHFX=  1.000000
 ScaDFX=  1.000000  1.000000  1.000000  1.000000 ScalE2=  1.000000  1.000000
 IRadAn=      0 IRanWt=     -1 IRanGd=            0 ICorTp=0 IEmpDi=  4
 Integral buffers will be    131072 words long.
 Regular integral format.
 Two-electron integral symmetry is turned off.
 Leave Link  301 at Sat Mar 21 09:45:15 2015, MaxMem=   134217728 cpu:         0.0
 (Enter /opt/g09_D01_em64t/g09/l302.exe)
 Do NDO integrals.
 NPDir=0 NMtPBC=     1 NCelOv=     1 NCel=       1 NClECP=     1 NCelD=      1
         NCelK=      1 NCelE2=     1 NClLst=     1 CellRange=     0.0.
 One-electron integrals computed using PRISM.
 NBasis=    12 RedAO= F EigKep=  0.00D+00  NBF=    12
 NBsUse=    12 1.00D-04 EigRej=  0.00D+00 NBFU=    12
 Leave Link  302 at Sat Mar 21 09:45:15 2015, MaxMem=   134217728 cpu:         0.0
 (Enter /opt/g09_D01_em64t/g09/l303.exe)
 DipDrv:  MaxL=1.
 Leave Link  303 at Sat Mar 21 09:45:15 2015, MaxMem=   134217728 cpu:         0.0
 (Enter /opt/g09_D01_em64t/g09/l401.exe)
 Simple Huckel Guess.
 JPrj=0 DoOrth=F DoCkMO=F.
 Leave Link  401 at Sat Mar 21 09:45:15 2015, MaxMem=   134217728 cpu:         0.0
 (Enter /opt/g09_D01_em64t/g09/l502.exe)
 Closed shell SCF:
 Using DIIS extrapolation, IDIIS=  1040.
 Overlap will be assumed to be unity.
 Two-electron integral symmetry not used.
 Keep J ints in memory in canonical form, NReq=884401.
 IVT=       79028 IEndB=       79028 NGot=   134217728 MDV=   134138401
 LenX=   134138401 LenY=   134137519
 Requested convergence on RMS density matrix=1.00D-08 within 128 cycles.
 Requested convergence on MAX density matrix=1.00D-06.
 Requested convergence on             energy=1.00D-06.
 No special actions if energy rises.
 FoFCou: FMM=F IPFlag=           0 FMFlag=           0 FMFlg1=           0
         NFxFlg=           0 DoJE=F BraDBF=F KetDBF=F FulRan=T
         wScrn=  0.000000 ICntrl=     600 IOpCl=  2 I1Cent=           0 NGrid=           0
         NMat0=    1 NMatS0=     24 NMatT0=    0 NMatD0=    1 NMtDS0=    0 NMtDT0=    0
 Symmetry not used in FoFCou.

 Cycle   1  Pass 1  IDiag  1:
 E=-0.234850077108959E-01
 DIIS: error= 5.00D-02 at cycle   1 NSaved=   1.
 NSaved= 1 IEnMin= 1 EnMin=-0.234850077108959E-01 IErMin= 1 ErrMin= 5.00D-02
 ErrMax= 5.00D-02  0.00D+00 EMaxC= 1.00D-01 BMatC= 4.58D-02 BMatP= 4.58D-02
 IDIUse=3 WtCom= 5.00D-01 WtEn= 5.00D-01
 Coeff-Com:  0.100D+01
 Coeff-En:   0.100D+01
 Coeff:      0.100D+01
 GapD=    2.000 DampG=2.000 DampE=0.500 DampFc=1.0000 IDamp=-1.
 RMSDP=2.47D-02 MaxDP=1.24D-01              OVMax= 0.00D+00

 Cycle   2  Pass 1  IDiag  1:
 E=-0.140436363900840     Delta-E=       -0.116951356190 Rises=F Damp=F
 DIIS: error= 1.47D-02 at cycle   2 NSaved=   2.
 NSaved= 2 IEnMin= 2 EnMin=-0.140436363900840     IErMin= 2 ErrMin= 1.47D-02
 ErrMax= 1.47D-02  0.00D+00 EMaxC= 1.00D-01 BMatC= 5.49D-03 BMatP= 4.58D-02
 IDIUse=3 WtCom= 8.53D-01 WtEn= 1.47D-01
 Coeff-Com: -0.346D+00 0.135D+01
 Coeff-En:   0.000D+00 0.100D+01
 Coeff:     -0.295D+00 0.129D+01
 RMSDP=1.42D-02 MaxDP=5.02D-02 DE=-1.17D-01 OVMax= 0.00D+00

 Cycle   3  Pass 1  IDiag  3:
 E=-0.164249290407909     Delta-E=       -0.023812926507 Rises=F Damp=F
 DIIS: error= 4.99D-03 at cycle   3 NSaved=   3.
 NSaved= 3 IEnMin= 3 EnMin=-0.164249290407909     IErMin= 3 ErrMin= 4.99D-03
 ErrMax= 4.99D-03  0.00D+00 EMaxC= 1.00D-01 BMatC= 8.27D-04 BMatP= 5.49D-03
 IDIUse=3 WtCom= 9.50D-01 WtEn= 4.99D-02
 Coeff-Com:  0.264D+00-0.138D+01 0.211D+01
 Coeff-En:   0.000D+00 0.000D+00 0.100D+01
 Coeff:      0.251D+00-0.131D+01 0.206D+01
 Gap=     0.550 Goal=   None    Shift=    0.000
 RMSDP=1.07D-02 MaxDP=3.47D-02 DE=-2.38D-02 OVMax= 5.64D-02

 Cycle   4  Pass 1  IDiag  3:
 E=-0.169683840368158     Delta-E=       -0.005434549960 Rises=F Damp=F
 DIIS: error= 5.03D-04 at cycle   4 NSaved=   4.
 NSaved= 4 IEnMin= 4 EnMin=-0.169683840368158     IErMin= 4 ErrMin= 5.03D-04
 ErrMax= 5.03D-04  0.00D+00 EMaxC= 1.00D-01 BMatC= 2.66D-06 BMatP= 8.27D-04
 IDIUse=3 WtCom= 9.95D-01 WtEn= 5.03D-03
 Coeff-Com: -0.379D-01 0.226D+00-0.407D+00 0.122D+01
 Coeff-En:   0.000D+00 0.000D+00 0.000D+00 0.100D+01
 Coeff:     -0.377D-01 0.225D+00-0.405D+00 0.122D+01
 Gap=     0.551 Goal=   None    Shift=    0.000
 RMSDP=4.77D-04 MaxDP=2.12D-03 DE=-5.43D-03 OVMax= 2.45D-03

 Cycle   5  Pass 1  IDiag  3:
 E=-0.169696821824594     Delta-E=       -0.000012981456 Rises=F Damp=F
 DIIS: error= 4.79D-05 at cycle   5 NSaved=   5.
 NSaved= 5 IEnMin= 5 EnMin=-0.169696821824594     IErMin= 5 ErrMin= 4.79D-05
 ErrMax= 4.79D-05  0.00D+00 EMaxC= 1.00D-01 BMatC= 3.77D-08 BMatP= 2.66D-06
 IDIUse=1 WtCom= 1.00D+00 WtEn= 0.00D+00
 Coeff-Com:  0.587D-02-0.406D-01 0.793D-01-0.370D+00 0.133D+01
 Coeff:      0.587D-02-0.406D-01 0.793D-01-0.370D+00 0.133D+01
 Gap=     0.551 Goal=   None    Shift=    0.000
 RMSDP=5.18D-05 MaxDP=2.45D-04 DE=-1.30D-05 OVMax= 2.19D-04

 Cycle   6  Pass 1  IDiag  3:
 E=-0.169696975567597     Delta-E=       -0.000000153743 Rises=F Damp=F
 DIIS: error= 5.82D-06 at cycle   6 NSaved=   6.
 NSaved= 6 IEnMin= 6 EnMin=-0.169696975567597     IErMin= 6 ErrMin= 5.82D-06
 ErrMax= 5.82D-06  0.00D+00 EMaxC= 1.00D-01 BMatC= 5.79D-10 BMatP= 3.77D-08
 IDIUse=1 WtCom= 1.00D+00 WtEn= 0.00D+00
 Coeff-Com: -0.818D-03 0.658D-02-0.128D-01 0.690D-01-0.304D+00 0.124D+01
 Coeff:     -0.818D-03 0.658D-02-0.128D-01 0.690D-01-0.304D+00 0.124D+01
 Gap=     0.551 Goal=   None    Shift=    0.000
 RMSDP=7.34D-06 MaxDP=2.68D-05 DE=-1.54D-07 OVMax= 3.99D-05

 Cycle   7  Pass 1  IDiag  3:
 E=-0.169696977764481     Delta-E=       -0.000000002197 Rises=F Damp=F
 DIIS: error= 1.10D-06 at cycle   7 NSaved=   7.
 NSaved= 7 IEnMin= 7 EnMin=-0.169696977764481     IErMin= 7 ErrMin= 1.10D-06
 ErrMax= 1.10D-06  0.00D+00 EMaxC= 1.00D-01 BMatC= 2.68D-11 BMatP= 5.79D-10
 IDIUse=1 WtCom= 1.00D+00 WtEn= 0.00D+00
 Coeff-Com:  0.333D-03-0.257D-02 0.466D-02-0.226D-01 0.107D+00-0.462D+00
 Coeff-Com:  0.138D+01
 Coeff:      0.333D-03-0.257D-02 0.466D-02-0.226D-01 0.107D+00-0.462D+00
 Coeff:      0.138D+01
 Gap=     0.551 Goal=   None    Shift=    0.000
 RMSDP=1.97D-06 MaxDP=8.35D-06 DE=-2.20D-09 OVMax= 1.03D-05

 Cycle   8  Pass 1  IDiag  3:
 E=-0.169696977867865     Delta-E=       -0.000000000103 Rises=F Damp=F
 DIIS: error= 4.29D-07 at cycle   8 NSaved=   8.
 NSaved= 8 IEnMin= 8 EnMin=-0.169696977867865     IErMin= 8 ErrMin= 4.29D-07
 ErrMax= 4.29D-07  0.00D+00 EMaxC= 1.00D-01 BMatC= 3.73D-12 BMatP= 2.68D-11
 IDIUse=1 WtCom= 1.00D+00 WtEn= 0.00D+00
 Coeff-Com: -0.629D-04 0.460D-03-0.713D-03 0.272D-02-0.160D-01 0.606D-01
 Coeff-Com: -0.311D+00 0.126D+01
 Coeff:     -0.629D-04 0.460D-03-0.713D-03 0.272D-02-0.160D-01 0.606D-01
 Coeff:     -0.311D+00 0.126D+01
 Gap=     0.551 Goal=   None    Shift=    0.000
 RMSDP=7.03D-07 MaxDP=2.48D-06 DE=-1.03D-10 OVMax= 4.24D-06

 Cycle   9  Pass 1  IDiag  3:
 E=-0.169696977885685     Delta-E=       -0.000000000018 Rises=F Damp=F
 DIIS: error= 9.64D-08 at cycle   9 NSaved=   9.
 NSaved= 9 IEnMin= 9 EnMin=-0.169696977885685     IErMin= 9 ErrMin= 9.64D-08
 ErrMax= 9.64D-08  0.00D+00 EMaxC= 1.00D-01 BMatC= 2.05D-13 BMatP= 3.73D-12
 IDIUse=1 WtCom= 1.00D+00 WtEn= 0.00D+00
 Coeff-Com:  0.133D-04-0.959D-04 0.932D-04-0.699D-04 0.274D-02-0.627D-02
 Coeff-Com:  0.535D-01-0.698D+00 0.165D+01
 Coeff:      0.133D-04-0.959D-04 0.932D-04-0.699D-04 0.274D-02-0.627D-02
 Coeff:      0.535D-01-0.698D+00 0.165D+01
 Gap=     0.551 Goal=   None    Shift=    0.000
 RMSDP=1.76D-07 MaxDP=7.48D-07 DE=-1.78D-11 OVMax= 1.12D-06

 Cycle  10  Pass 1  IDiag  3:
 E=-0.169696977886702     Delta-E=       -0.000000000001 Rises=F Damp=F
 DIIS: error= 1.90D-08 at cycle  10 NSaved=  10.
 NSaved=10 IEnMin=10 EnMin=-0.169696977886702     IErMin=10 ErrMin= 1.90D-08
 ErrMax= 1.90D-08  0.00D+00 EMaxC= 1.00D-01 BMatC= 1.18D-14 BMatP= 2.05D-13
 IDIUse=1 WtCom= 1.00D+00 WtEn= 0.00D+00
 Coeff-Com: -0.315D-06 0.117D-05 0.173D-04-0.168D-03 0.194D-03-0.194D-02
 Coeff-Com:  0.609D-02 0.114D+00-0.396D+00 0.128D+01
 Coeff:     -0.315D-06 0.117D-05 0.173D-04-0.168D-03 0.194D-03-0.194D-02
 Coeff:      0.609D-02 0.114D+00-0.396D+00 0.128D+01
 Gap=     0.551 Goal=   None    Shift=    0.000
 RMSDP=3.73D-08 MaxDP=1.22D-07 DE=-1.02D-12 OVMax= 2.10D-07

 Cycle  11  Pass 1  IDiag  3:
 E=-0.169696977886773     Delta-E=        0.000000000000 Rises=F Damp=F
 DIIS: error= 2.32D-09 at cycle  11 NSaved=  11.
 NSaved=11 IEnMin=11 EnMin=-0.169696977886773     IErMin=11 ErrMin= 2.32D-09
 ErrMax= 2.32D-09  0.00D+00 EMaxC= 1.00D-01 BMatC= 1.45D-16 BMatP= 1.18D-14
 IDIUse=1 WtCom= 1.00D+00 WtEn= 0.00D+00
 Coeff-Com: -0.528D-06 0.451D-05-0.140D-04 0.927D-04-0.257D-03 0.140D-02
 Coeff-Com: -0.548D-02-0.241D-01 0.113D+00-0.462D+00 0.138D+01
 Coeff:     -0.528D-06 0.451D-05-0.140D-04 0.927D-04-0.257D-03 0.140D-02
 Coeff:     -0.548D-02-0.241D-01 0.113D+00-0.462D+00 0.138D+01
 Gap=     0.551 Goal=   None    Shift=    0.000
 RMSDP=3.67D-09 MaxDP=1.36D-08 DE=-7.11D-14 OVMax= 1.68D-08

 Cycle  12  Pass 2  IDiag  1:
 SCF Done:  E(RPM6) = -0.169696977887     A.U. after   12 cycles
            NFock= 11  Conv=0.37D-08     -V/T= 0.9774
 KE=-7.518769751455D+00 PE=-6.861372511996D+01 EE= 3.251036239510D+01
 Leave Link  502 at Sat Mar 21 09:45:16 2015, MaxMem=   134217728 cpu:         0.0
 (Enter /opt/g09_D01_em64t/g09/l601.exe)
 Copying SCF densities to generalized density rwf, IOpCl= 0 IROHF=0.

 **********************************************************************

            Population analysis using the SCF density.

 **********************************************************************

 Alpha  occ. eigenvalues --   -1.12645  -1.09991  -0.72508  -0.68336  -0.52717
 Alpha  occ. eigenvalues --   -0.51306  -0.44687  -0.43398
 Alpha virt. eigenvalues --    0.11737   0.15436   0.20694   0.22433
          Condensed to atoms (all electrons):
               1          2          3          4          5          6
     1  O    6.617454   0.000000   0.000000   0.000000   0.000000   0.000000
     2  H    0.000000   0.690942   0.000000   0.000000   0.000000   0.000000
     3  H    0.000000   0.000000   0.692729   0.000000   0.000000   0.000000
     4  O    0.000000   0.000000   0.000000   6.616429   0.000000   0.000000
     5  H    0.000000   0.000000   0.000000   0.000000   0.700344   0.000000
     6  H    0.000000   0.000000   0.000000   0.000000   0.000000   0.682101
 Mulliken charges:
               1
     1  O   -0.617454
     2  H    0.309058
     3  H    0.307271
     4  O   -0.616429
     5  H    0.299656
     6  H    0.317899
 Sum of Mulliken charges =   0.00000
 Mulliken charges with hydrogens summed into heavy atoms:
               1
     1  O   -0.001126
     4  O    0.001126
 Charge=              0.0000 electrons
 Dipole moment (field-independent basis, Debye):
    X=              2.2937    Y=              3.3756    Z=              0.0000  Tot=              4.0812
 N-N= 4.345243549843D+01 E-N=-6.861372512165D+01  KE=-7.518769751455D+00
 Leave Link  601 at Sat Mar 21 09:45:16 2015, MaxMem=   134217728 cpu:         0.0
 (Enter /opt/g09_D01_em64t/g09/l701.exe)
 Compute integral first derivatives.
 ... and contract with generalized density number  0.
 Leave Link  701 at Sat Mar 21 09:45:16 2015, MaxMem=   134217728 cpu:         0.0
 (Enter /opt/g09_D01_em64t/g09/l702.exe)
 L702 exits ... SP integral derivatives will be done elsewhere.
 Leave Link  702 at Sat Mar 21 09:45:16 2015, MaxMem=   134217728 cpu:         0.0
 (Enter /opt/g09_D01_em64t/g09/l703.exe)
 Compute integral first derivatives, UseDBF=F ICtDFT=           0.
 Integral derivatives from FoFJK, PRISM(SPDF).
 Calling FoFJK, ICntrl=      2127 FMM=F ISym2X=0 I1Cent= 0 IOpClX= 0 NMat=1 NMatS=1 NMatT=0.
 FoFJK:  IHMeth=40 ICntrl=    2127 DoSepK=F KAlg= 0 I1Cent=   0 FoldK=F
 IRaf=         0 NMat=   1 IRICut=       1 DoRegI=T DoRafI=F ISym2E= 0.
 FoFCou: FMM=F IPFlag=           0 FMFlag=      100000 FMFlg1=         800
         NFxFlg=           0 DoJE=F BraDBF=F KetDBF=F FulRan=T
         wScrn=  0.000000 ICntrl=    2127 IOpCl=  0 I1Cent=           0 NGrid=           0
         NMat0=    1 NMatS0=      1 NMatT0=    0 NMatD0=    1 NMtDS0=    0 NMtDT0=    0
 Symmetry not used in FoFCou.
 Leave Link  703 at Sat Mar 21 09:45:16 2015, MaxMem=   134217728 cpu:         0.0
 (Enter /opt/g09_D01_em64t/g09/l716.exe)
 Dipole        = 9.02403603D-01 1.32808062D+00 1.88613974D-16
 Cartesian Forces:  Max     0.006810988 RMS     0.003613602
 Leave Link  716 at Sat Mar 21 09:45:16 2015, MaxMem=   134217728 cpu:         0.0
 (Enter /opt/g09_D01_em64t/g09/l120.exe)
 SvSCFP is copying densities from files   528 and   530 to   603.
 ONIOM: saving gridpoint  3
 ONIOM: restoring gridpoint 17
 ONIOM: generating point  2 -- high level on model system.
 ChrgS2: IScale=     5     5     5     5     0     0 (distance 6..1 bonds)
 ChrgS2:  Scale=  1.00  1.00  1.00  1.00  0.00  0.00 (distance 6..1 bonds)

 --------------------------------------------------------------------------------
 #P Test IOp(2/15=1,5/32=2,5/38=1) B3LYP/6-31G(D,P) TD(SINGLET,NSTATES=3,ROOT=1)

 ch2nh2 iop(9/40=20)
 Point  2 -- high level on model system.

 0,1
  O-O_3--0.834000                                  -0.368705030000     -2.194244570000      0.000000000000
  H-H_-0.417000                                     0.591294970000     -2.194244570000      0.000000000000
  H-H_-0.417000                                    -0.689159620000     -1.289308740000      0.000000000000
  O-#6--0.834000                                   -2.347122270000      0.341726610000      0.000000000000
  H-#6-0.417000                                    -1.387122270000      0.341726610000      0.000000000000
  H-#6-0.417000                                    -2.667576860000      1.246662440000      0.000000000000

 1 2 1.000 3 1.000
 2 1 1.000
 3 1 1.000
 4 5 1.000 6 1.000
 5 4 1.000
 6 4 1.000
 
 --------------------------------------------------------------------------------

 Leave Link  120 at Sat Mar 21 09:45:16 2015, MaxMem=   134217728 cpu:         0.0
 (Enter /opt/g09_D01_em64t/g09/l301.exe)
 Standard basis: 6-31G(d,p) (6D, 7F)
 Ernie: Thresh=  0.10000D-02 Tol=  0.10000D-05 Strict=F.
    25 basis functions,    42 primitive gaussians,    25 cartesian basis functions
     5 alpha electrons        5 beta electrons
       nuclear repulsion energy         8.8119525365 Hartrees.
 Nuclear repulsion from inactive atom pairs=       -0.3247219173 Hartrees.
 IExCor=  402 DFT=T Ex+Corr=B3LYP ExCW=0 ScaHFX=  0.200000
 ScaDFX=  0.800000  0.720000  1.000000  0.810000 ScalE2=  1.000000  1.000000
 IRadAn=      0 IRanWt=     -1 IRanGd=            0 ICorTp=0 IEmpDi=  4
 NAtoms=    6 NActive=    3 NUniq=    3 SFac= 1.00D+00 NAtFMM=   60 NAOKFM=F Big=F
 Integral buffers will be    131072 words long.
 Regular integral format.
 Two-electron integral symmetry is turned off.
 Leave Link  301 at Sat Mar 21 09:45:16 2015, MaxMem=   134217728 cpu:         0.0
 (Enter /opt/g09_D01_em64t/g09/l302.exe)
 NPDir=0 NMtPBC=     1 NCelOv=     1 NCel=       1 NClECP=     1 NCelD=      1
         NCelK=      1 NCelE2=     1 NClLst=     1 CellRange=     0.0.
 One-electron integrals computed using PRISM.
 NBasis=    25 RedAO= T EigKep=  2.21D-02  NBF=    25
 NBsUse=    25 1.00D-06 EigRej= -1.00D+00 NBFU=    25
 Precomputing XC quadrature grid using
 IXCGrd= 4 IRadAn=           0 IRanWt=          -1 IRanGd=           0 AccXCQ= 0.00D+00.
 Generated NRdTot=       0 NPtTot=           0 NUsed=           0 NTot=          32
 NSgBfM=    25    25    25    25    25 MxSgAt=     3 MxSgA2=     3.
 Leave Link  302 at Sat Mar 21 09:45:16 2015, MaxMem=   134217728 cpu:         0.1
 (Enter /opt/g09_D01_em64t/g09/l308.exe)
 Leave Link  308 at Sat Mar 21 09:45:16 2015, MaxMem=   134217728 cpu:         0.0
 (Enter /opt/g09_D01_em64t/g09/l303.exe)
 DipDrv:  MaxL=1.
 Leave Link  303 at Sat Mar 21 09:45:16 2015, MaxMem=   134217728 cpu:         0.0
 (Enter /opt/g09_D01_em64t/g09/l401.exe)
 ExpMin= 1.61D-01 ExpMax= 5.48D+03 ExpMxC= 8.25D+02 IAcc=1 IRadAn=         1 AccDes= 0.00D+00
 Harris functional with IExCor=  402 and IRadAn=       1 diagonalized for initial guess.
 HarFok:  IExCor=  402 AccDes= 0.00D+00 IRadAn=         1 IDoV= 1 UseB2=F ITyADJ=14
 ICtDFT=  3500011 ScaDFX=  1.000000  1.000000  1.000000  1.000000
 FoFCou: FMM=F IPFlag=           0 FMFlag=      100000 FMFlg1=           0
         NFxFlg=           0 DoJE=T BraDBF=F KetDBF=T FulRan=T
         wScrn=  0.000000 ICntrl=     500 IOpCl=  0 I1Cent=   200000004 NGrid=           0
         NMat0=    1 NMatS0=      1 NMatT0=    0 NMatD0=    1 NMtDS0=    0 NMtDT0=    0
 Symmetry not used in FoFCou.
 Harris En= -76.7777486621520    
 JPrj=0 DoOrth=F DoCkMO=F.
 Leave Link  401 at Sat Mar 21 09:45:16 2015, MaxMem=   134217728 cpu:         0.1
 (Enter /opt/g09_D01_em64t/g09/l502.exe)
 Closed shell SCF:
 Using DIIS extrapolation, IDIIS=  1040.
 Two-electron integral symmetry not used.
 Keep R1 ints in memory in canonical form, NReq=933384.
 IVT=       20737 IEndB=       20737 NGot=   134217728 MDV=   134144017
 LenX=   134144017 LenY=   134142951
 Requested convergence on RMS density matrix=1.00D-08 within 128 cycles.
 Requested convergence on MAX density matrix=1.00D-06.
 Requested convergence on             energy=1.00D-06.
 No special actions if energy rises.
 FoFCou: FMM=F IPFlag=           0 FMFlag=           0 FMFlg1=           0
         NFxFlg=           0 DoJE=F BraDBF=F KetDBF=F FulRan=T
         wScrn=  0.000000 ICntrl=     600 IOpCl=  0 I1Cent=           0 NGrid=           0
         NMat0=    1 NMatS0=    325 NMatT0=    0 NMatD0=    1 NMtDS0=    0 NMtDT0=    0
 Symmetry not used in FoFCou.
 Integral accuracy reduced to 1.0D-05 until final iterations.

 Cycle   1  Pass 0  IDiag  1:
 E= -76.6630018134745    
 DIIS: error= 5.97D-02 at cycle   1 NSaved=   1.
 NSaved= 1 IEnMin= 1 EnMin= -76.6630018134745     IErMin= 1 ErrMin= 5.97D-02
 ErrMax= 5.97D-02  0.00D+00 EMaxC= 1.00D-01 BMatC= 1.04D-01 BMatP= 1.04D-01
 IDIUse=3 WtCom= 4.03D-01 WtEn= 5.97D-01
 Coeff-Com:  0.100D+01
 Coeff-En:   0.100D+01
 Coeff:      0.100D+01
 Gap=     0.211 Goal=   None    Shift=    0.000
 GapD=    0.211 DampG=1.000 DampE=0.500 DampFc=0.5000 IDamp=-1.
 Damping current iteration by 5.00D-01
 RMSDP=2.23D-02 MaxDP=2.27D-01              OVMax= 1.97D-01

 Cycle   2  Pass 0  IDiag  1:
 E= -76.6893399340948     Delta-E=       -0.026338120620 Rises=F Damp=T
 DIIS: error= 1.30D-02 at cycle   2 NSaved=   2.
 NSaved= 2 IEnMin= 2 EnMin= -76.6893399340948     IErMin= 2 ErrMin= 1.30D-02
 ErrMax= 1.30D-02  0.00D+00 EMaxC= 1.00D-01 BMatC= 6.21D-03 BMatP= 1.04D-01
 IDIUse=3 WtCom= 8.70D-01 WtEn= 1.30D-01
 Coeff-Com:  0.182D+00 0.818D+00
 Coeff-En:   0.298D+00 0.702D+00
 Coeff:      0.197D+00 0.803D+00
 Gap=     0.340 Goal=   None    Shift=    0.000
 RMSDP=2.77D-03 MaxDP=3.87D-02 DE=-2.63D-02 OVMax= 1.15D-01

 Cycle   3  Pass 0  IDiag  1:
 E= -76.7397219277665     Delta-E=       -0.050381993672 Rises=F Damp=F
 DIIS: error= 1.63D-03 at cycle   3 NSaved=   3.
 NSaved= 3 IEnMin= 3 EnMin= -76.7397219277665     IErMin= 3 ErrMin= 1.63D-03
 ErrMax= 1.63D-03  0.00D+00 EMaxC= 1.00D-01 BMatC= 9.98D-05 BMatP= 6.21D-03
 IDIUse=3 WtCom= 9.84D-01 WtEn= 1.63D-02
 Coeff-Com:  0.261D-01-0.937D-02 0.983D+00
 Coeff-En:   0.000D+00 0.000D+00 0.100D+01
 Coeff:      0.257D-01-0.922D-02 0.984D+00
 Gap=     0.352 Goal=   None    Shift=    0.000
 RMSDP=2.38D-04 MaxDP=2.61D-03 DE=-5.04D-02 OVMax= 2.15D-03

 Cycle   4  Pass 0  IDiag  1:
 E= -76.7397867437487     Delta-E=       -0.000064815982 Rises=F Damp=F
 DIIS: error= 2.65D-04 at cycle   4 NSaved=   4.
 NSaved= 4 IEnMin= 4 EnMin= -76.7397867437487     IErMin= 4 ErrMin= 2.65D-04
 ErrMax= 2.65D-04  0.00D+00 EMaxC= 1.00D-01 BMatC= 2.29D-06 BMatP= 9.98D-05
 IDIUse=3 WtCom= 9.97D-01 WtEn= 2.65D-03
 Coeff-Com:  0.498D-02-0.158D-01 0.229D+00 0.782D+00
 Coeff-En:   0.000D+00 0.000D+00 0.000D+00 0.100D+01
 Coeff:      0.497D-02-0.158D-01 0.228D+00 0.783D+00
 Gap=     0.353 Goal=   None    Shift=    0.000
 RMSDP=2.79D-05 MaxDP=2.35D-04 DE=-6.48D-05 OVMax= 3.01D-04

 Cycle   5  Pass 0  IDiag  1:
 E= -76.7397883567617     Delta-E=       -0.000001613013 Rises=F Damp=F
 DIIS: error= 3.97D-05 at cycle   5 NSaved=   5.
 NSaved= 5 IEnMin= 5 EnMin= -76.7397883567617     IErMin= 5 ErrMin= 3.97D-05
 ErrMax= 3.97D-05  0.00D+00 EMaxC= 1.00D-01 BMatC= 4.45D-08 BMatP= 2.29D-06
 IDIUse=1 WtCom= 1.00D+00 WtEn= 0.00D+00
 Coeff-Com:  0.632D-03-0.696D-03 0.388D-02 0.158D-01 0.980D+00
 Coeff:      0.632D-03-0.696D-03 0.388D-02 0.158D-01 0.980D+00
 Gap=     0.353 Goal=   None    Shift=    0.000
 RMSDP=6.31D-06 MaxDP=7.59D-05 DE=-1.61D-06 OVMax= 5.05D-05

 Initial convergence to 1.0D-05 achieved.  Increase integral accuracy.
 Cycle   6  Pass 1  IDiag  1:
 E= -76.7397877959661     Delta-E=        0.000000560796 Rises=F Damp=F
 DIIS: error= 2.56D-06 at cycle   1 NSaved=   1.
 NSaved= 1 IEnMin= 1 EnMin= -76.7397877959661     IErMin= 1 ErrMin= 2.56D-06
 ErrMax= 2.56D-06  0.00D+00 EMaxC= 1.00D-01 BMatC= 1.35D-10 BMatP= 1.35D-10
 IDIUse=1 WtCom= 1.00D+00 WtEn= 0.00D+00
 Coeff-Com:  0.100D+01
 Coeff:      0.100D+01
 Gap=     0.353 Goal=   None    Shift=    0.000
 RMSDP=6.31D-06 MaxDP=7.59D-05 DE= 5.61D-07 OVMax= 4.87D-06

 Cycle   7  Pass 1  IDiag  1:
 E= -76.7397877960787     Delta-E=       -0.000000000113 Rises=F Damp=F
 DIIS: error= 1.77D-07 at cycle   2 NSaved=   2.
 NSaved= 2 IEnMin= 2 EnMin= -76.7397877960787     IErMin= 2 ErrMin= 1.77D-07
 ErrMax= 1.77D-07  0.00D+00 EMaxC= 1.00D-01 BMatC= 9.84D-13 BMatP= 1.35D-10
 IDIUse=1 WtCom= 1.00D+00 WtEn= 0.00D+00
 Coeff-Com:  0.655D-02 0.993D+00
 Coeff:      0.655D-02 0.993D+00
 Gap=     0.353 Goal=   None    Shift=    0.000
 RMSDP=4.18D-08 MaxDP=4.08D-07 DE=-1.13D-10 OVMax= 3.10D-07

 Cycle   8  Pass 1  IDiag  1:
 E= -76.7397877960794     Delta-E=       -0.000000000001 Rises=F Damp=F
 DIIS: error= 3.84D-08 at cycle   3 NSaved=   3.
 NSaved= 3 IEnMin= 3 EnMin= -76.7397877960794     IErMin= 3 ErrMin= 3.84D-08
 ErrMax= 3.84D-08  0.00D+00 EMaxC= 1.00D-01 BMatC= 5.84D-14 BMatP= 9.84D-13
 IDIUse=1 WtCom= 1.00D+00 WtEn= 0.00D+00
 Coeff-Com: -0.578D-02 0.142D+00 0.864D+00
 Coeff:     -0.578D-02 0.142D+00 0.864D+00
 Gap=     0.353 Goal=   None    Shift=    0.000
 RMSDP=9.59D-09 MaxDP=5.75D-08 DE=-7.39D-13 OVMax= 9.63D-08

 SCF Done:  E(RB3LYP) =  -76.7397877961     A.U. after    8 cycles
            NFock=  8  Conv=0.96D-08     -V/T= 2.0119
 KE= 7.583648929923D+01 PE=-1.989054102845D+02 EE= 3.751718065271D+01
 Leave Link  502 at Sat Mar 21 09:45:16 2015, MaxMem=   134217728 cpu:         0.4
 (Enter /opt/g09_D01_em64t/g09/l801.exe)
 DoSCS=F DFT=T ScalE2(SS,OS)=  1.000000  1.000000
 ExpMin= 1.61D-01 ExpMax= 5.48D+03 ExpMxC= 8.25D+02 IAcc=3 IRadAn=         5 AccDes= 0.00D+00
 HarFok:  IExCor=  205 AccDes= 0.00D+00 IRadAn=         5 IDoV=-2 UseB2=F ITyADJ=14
 ICtDFT= 12500011 ScaDFX=  1.000000  1.000000  1.000000  1.000000
 Largest valence mixing into a core orbital is  2.73D-05
 Largest core mixing into a valence orbital is  6.16D-06
 Range of M.O.s used for correlation:     2    25
 NBasis=    25 NAE=     5 NBE=     5 NFC=     1 NFV=     0
 NROrb=     24 NOA=     4 NOB=     4 NVA=    20 NVB=    20
 Leave Link  801 at Sat Mar 21 09:45:17 2015, MaxMem=   134217728 cpu:         0.1
 (Enter /opt/g09_D01_em64t/g09/l914.exe)
 RHF ground state
 MDV=   134217728 DFT=T DoStab=F Mixed=T DoRPA=T DoScal=F NonHer=T
 Keep R1, R2, and R3 ints in memory in canonical form, NReq=1106670.
 FoFCou: FMM=F IPFlag=           0 FMFlag=           0 FMFlg1=           0
         NFxFlg=           0 DoJE=F BraDBF=F KetDBF=F FulRan=T
         wScrn=  0.000000 ICntrl=     600 IOpCl=  0 I1Cent=           0 NGrid=           0
         NMat0=    1 NMatS0=    325 NMatT0=    0 NMatD0=    1 NMtDS0=    0 NMtDT0=    0
 Symmetry not used in FoFCou.
 Making orbital integer symmetry assigments:
    12 initial guesses have been made.
 Convergence on wavefunction:    0.000001000000000
 Davidson Disk Diagonalization:  ConvIn= 1.00D-06 SkipCon=T Conv= 1.00D-06.
 Max sub-space:   200 roots to seek:    12 dimension of matrix:          160
 Iteration     1 Dimension    12 NMult     0 NNew     12
 CISAX will form    12 AO SS matrices at one time.
 NMat=    12 NSing=    12 JSym2X= 0.
 New state      2 was old state      3
 New state      3 was old state      2
 Excitation Energies [eV] at current iteration:
 Root      1 :     7.944990775942430
 Root      2 :     9.982033633138485
 Root      3 :    10.258846200646090
 Root      4 :    12.456198367530140
 Root      5 :    14.852684999657840
 Root      6 :    18.913677240243080
 Root      7 :    26.670744807594850
 Root      8 :    27.656007144649350
 Root      9 :    28.060687019094820
 Root     10 :    29.484498421123710
 Root     11 :    30.991698897010720
 Root     12 :    31.625405969931490
 Iteration     2 Dimension    18 NMult    12 NNew      6
 CISAX will form     6 AO SS matrices at one time.
 NMat=     6 NSing=     6 JSym2X= 0.
 Root      1 not converged, maximum delta is    0.013598232958187
 Root      2 not converged, maximum delta is    0.016804666126086
 Root      3 not converged, maximum delta is    0.034859754033426
 Excitation Energies [eV] at current iteration:
 Root      1 :     7.890886090028030   Change is   -0.054104685914401
 Root      2 :     9.958814746894600   Change is   -0.023218886243886
 Root      3 :    10.134689815363320   Change is   -0.124156385282768
 Iteration     3 Dimension    24 NMult    18 NNew      6
 CISAX will form     6 AO SS matrices at one time.
 NMat=     6 NSing=     6 JSym2X= 0.
 Root      1 not converged, maximum delta is    0.001060618324468
 Root      2 not converged, maximum delta is    0.000170208683045
 Root      3 not converged, maximum delta is    0.004302156919905
 Excitation Energies [eV] at current iteration:
 Root      1 :     7.890543310341585   Change is   -0.000342779686444
 Root      2 :     9.958771750190548   Change is   -0.000042996704052
 Root      3 :    10.132090753273680   Change is   -0.002599062089647
 Iteration     4 Dimension    30 NMult    24 NNew      6
 CISAX will form     6 AO SS matrices at one time.
 NMat=     6 NSing=     6 JSym2X= 0.
 Root      1 not converged, maximum delta is    0.000074403843436
 Root      2 not converged, maximum delta is    0.000015196453706
 Root      3 not converged, maximum delta is    0.000408410087336
 Excitation Energies [eV] at current iteration:
 Root      1 :     7.890542494702945   Change is   -0.000000815638641
 Root      2 :     9.958771658626116   Change is   -0.000000091564432
 Root      3 :    10.132061675462410   Change is   -0.000029077811262
 Iteration     5 Dimension    36 NMult    30 NNew      6
 CISAX will form     6 AO SS matrices at one time.
 NMat=     6 NSing=     6 JSym2X= 0.
 Root      1 not converged, maximum delta is    0.000002311782373
 Root      2 has converged.
 Root      3 not converged, maximum delta is    0.000039437804924
 Excitation Energies [eV] at current iteration:
 Root      1 :     7.890542492369006   Change is   -0.000000002333939
 Root      2 :     9.958771658411962   Change is   -0.000000000214153
 Root      3 :    10.132061230096630   Change is   -0.000000445365784
 Iteration     6 Dimension    40 NMult    36 NNew      4
 CISAX will form     4 AO SS matrices at one time.
 NMat=     4 NSing=     4 JSym2X= 0.
 Root      1 has converged.
 Root      2 has converged.
 Root      3 not converged, maximum delta is    0.000003563297191
 Excitation Energies [eV] at current iteration:
 Root      1 :     7.890542492364183   Change is   -0.000000000004823
 Root      2 :     9.958771658411226   Change is   -0.000000000000736
 Root      3 :    10.132061222925430   Change is   -0.000000007171200
 Iteration     7 Dimension    42 NMult    40 NNew      2
 CISAX will form     2 AO SS matrices at one time.
 NMat=     2 NSing=     2 JSym2X= 0.
 Root      1 has converged.
 Root      2 has converged.
 Root      3 has converged.
 Excitation Energies [eV] at current iteration:
 Root      1 :     7.890542492364287   Change is    0.000000000000104
 Root      2 :     9.958771658411170   Change is   -0.000000000000057
 Root      3 :    10.132061222908690   Change is   -0.000000000016738
 Convergence achieved on expansion vectors.
 ***********************************************************************
 Excited states from <AA,BB:AA,BB> singles matrix:
 ***********************************************************************
 
 1PDM for each excited state written to RWF  633
 Ground to excited state transition densities written to RWF  633
 Ground to excited state transition electric dipole moments (Au):
       state          X           Y           Z        Dip. S.      Osc.
         1         0.0000      0.0000      0.2660      0.0708      0.0137
         2         0.0000      0.0000     -0.0113      0.0001      0.0000
         3         0.3204      0.4855      0.0000      0.3384      0.0840
 Ground to excited state transition velocity dipole moments (Au):
       state          X           Y           Z        Dip. S.      Osc.
         1         0.0000      0.0000     -0.1674      0.0280      0.0644
         2         0.0000      0.0000      0.0072      0.0001      0.0001
         3        -0.1624     -0.2400      0.0000      0.0840      0.1504
 Ground to excited state transition magnetic dipole moments (Au):
       state          X           Y           Z
         1         0.4795      0.0200      0.0000
         2        -0.2013     -0.2490      0.0000
         3         0.0000      0.0000     -0.4909
 Ground to excited state transition velocity quadrupole moments (Au):
       state          XX          YY          ZZ          XY          XZ          YZ
         1         0.0000      0.0000      0.0000      0.0000      0.0332      0.5644
         2         0.0000      0.0000      0.0000      0.0000      0.2033     -0.1704
         3         0.0051      1.6776     -0.0049      0.7388      0.0000      0.0000
 <0|del|b> * <b|rxdel|0> + <0|del|b> * <b|delr+rdel|0>
 Rotatory Strengths (R) in cgs (10**-40 erg-esu-cm/Gauss)
       state          XX          YY          ZZ    R(velocity)    E-M Angle
         1         0.0000      0.0000      0.0000      0.0000       90.00
         2         0.0000      0.0000      0.0000      0.0000       90.00
         3         0.0000      0.0000      0.0000      0.0000       90.00
 1/2[<0|r|b>*<b|rxdel|0> + (<0|rxdel|b>*<b|r|0>)*]
 Rotatory Strengths (R) in cgs (10**-40 erg-esu-cm/Gauss)
       state          XX          YY          ZZ     R(length)
         1         0.0000      0.0000      0.0000      0.0000
         2         0.0000      0.0000      0.0000      0.0000
         3         0.0000      0.0000      0.0000      0.0000
  1/2[<0|del|b>*<b|r|0> + (<0|r|b>*<b|del|0>)*] (Au)
       state          X           Y           Z        Dip. S.   Osc.(frdel)
         1         0.0000      0.0000     -0.0445      0.0445      0.0297
         2         0.0000      0.0000     -0.0001      0.0001      0.0001
         3        -0.0520     -0.1165      0.0000      0.1686      0.1124

 Excitation energies and oscillator strengths:
 
 Excited state symmetry could not be determined.
 Excited State   1:      Singlet-?Sym    7.8905 eV  157.13 nm  f=0.0137  <S**2>=0.000
       5 ->  6         0.70714
 This state for optimization and/or second-order correction.
 Total Energy, E(TD-HF/TD-KS) =  -76.4498156825    
 Copying the excited state density for this state as the 1-particle RhoCI density.
 
 Excited state symmetry could not be determined.
 Excited State   2:      Singlet-?Sym    9.9588 eV  124.50 nm  f=0.0000  <S**2>=0.000
       5 ->  7         0.70666
 
 Excited state symmetry could not be determined.
 Excited State   3:      Singlet-?Sym   10.1321 eV  122.37 nm  f=0.0840  <S**2>=0.000
       4 ->  6         0.70296
 SavETr:  write IOETrn=   770 NScale= 10 NData=  16 NLR=1 NState=    3 LETran=      64.
 The selected state is a singlet
 CISAX will form     1 AO SS matrices at one time.
 NMat=     1 NSing=     1 JSym2X= 0.
 CISAX will form     1 AO SS matrices at one time.
 NMat=     1 NSing=     1 JSym2X= 0.
 Leave Link  914 at Sat Mar 21 09:45:19 2015, MaxMem=   134217728 cpu:         1.9
 (Enter /opt/g09_D01_em64t/g09/l1002.exe)
 Minotr:  Closed shell wavefunction.
          Computing CIS/TD-HF/TD-KS derivatives.
          Using Z-Vector for PSCF gradient.
          Skipping F1 and S1 gradient terms here.
          IDoAtm=111222
          Frozen-core window.
          Direct CPHF calculation.
          Differentiating once with respect to electric field.
                with respect to dipole field.
          Differentiating once with respect to nuclear coordinates.
          Requested convergence is 1.0D-10 RMS, and 1.0D-09 maximum.
          NewPWx=F KeepS1=T KeepF1=T KeepIn=F MapXYZ=T SortEE=T KeepMc=T.
          MDV=     134217640 using IRadAn=       0.
 Using stored XC quadrature information.
 Keep R1 ints in memory in canonical form, NReq=913344.
 FoFCou: FMM=F IPFlag=           0 FMFlag=           0 FMFlg1=           0
         NFxFlg=           0 DoJE=F BraDBF=F KetDBF=F FulRan=T
         wScrn=  0.000000 ICntrl=     600 IOpCl=  0 I1Cent=           0 NGrid=           0
         NMat0=    1 NMatS0=    325 NMatT0=    0 NMatD0=    1 NMtDS0=    0 NMtDT0=    0
 Symmetry not used in FoFCou.
          Solving linear equations separately, MaxMat=       0.
          There are     1 degrees of freedom in the 1st order CPHF.  IDoFFX=0 NUNeed=     1.
 LinEq1:  Iter=  0 NonCon=     1 RMS=1.06D-01 Max=6.25D-01 NDo=     1
 AX will form     1 AO Fock derivatives at one time.
 LinEq1:  Iter=  1 NonCon=     1 RMS=1.67D-02 Max=1.05D-01 NDo=     1
 LinEq1:  Iter=  2 NonCon=     1 RMS=2.74D-03 Max=1.39D-02 NDo=     1
 LinEq1:  Iter=  3 NonCon=     1 RMS=4.17D-04 Max=2.55D-03 NDo=     1
 LinEq1:  Iter=  4 NonCon=     1 RMS=5.48D-05 Max=2.42D-04 NDo=     1
 LinEq1:  Iter=  5 NonCon=     1 RMS=1.05D-05 Max=4.91D-05 NDo=     1
 LinEq1:  Iter=  6 NonCon=     1 RMS=8.99D-07 Max=4.29D-06 NDo=     1
 LinEq1:  Iter=  7 NonCon=     1 RMS=6.24D-08 Max=2.49D-07 NDo=     1
 LinEq1:  Iter=  8 NonCon=     1 RMS=4.50D-09 Max=2.00D-08 NDo=     1
 LinEq1:  Iter=  9 NonCon=     1 RMS=2.15D-10 Max=1.02D-09 NDo=     1
 LinEq1:  Iter= 10 NonCon=     0 RMS=9.72D-12 Max=3.67D-11 NDo=     1
 Linear equations converged to 1.000D-10 1.000D-09 after    10 iterations.
 End of Minotr F.D. properties file   721 does not exist.
 End of Minotr F.D. properties file   722 does not exist.
 End of Minotr F.D. properties file   788 does not exist.
 Leave Link 1002 at Sat Mar 21 09:45:20 2015, MaxMem=   134217728 cpu:         1.2
 (Enter /opt/g09_D01_em64t/g09/l601.exe)
 Copying SCF densities to generalized density rwf, IOpCl= 0 IROHF=0.

 **********************************************************************

            Population analysis using the SCF density.

 **********************************************************************

 Alpha  occ. eigenvalues --  -19.13389  -0.99443  -0.52567  -0.35881  -0.28923
 Alpha virt. eigenvalues --    0.06342   0.15015   0.77830   0.79476   0.89042
 Alpha virt. eigenvalues --    0.89450   1.02135   1.15782   1.51940   1.57987
 Alpha virt. eigenvalues --    1.66364   2.23072   2.24114   2.47919   2.63227
 Alpha virt. eigenvalues --    2.68254   3.03435   3.32645   3.51414   3.73047
          Condensed to atoms (all electrons):
               1          2          3
     1  O    8.035145   0.285022   0.283712
     2  H    0.285022   0.436314  -0.026472
     3  H    0.283712  -0.026472   0.444016
 Mulliken charges:
               1
     1  O   -0.603879
     2  H    0.305136
     3  H    0.298744
     4  O   -0.834000
     5  H    0.417000
     6  H    0.417000
 Sum of Mulliken charges =   0.00000
 Mulliken charges with hydrogens summed into heavy atoms:
               1
     1  O    0.000000
     4  O    0.000000
 Electronic spatial extent (au):  <R**2>=            185.7022
 Charge=              0.0000 electrons
 Dipole moment (field-independent basis, Debye):
    X=              2.3702    Y=              3.3474    Z=              0.0000  Tot=              4.1015
 Quadrupole moment (field-independent basis, Debye-Ang):
   XX=             -9.3808   YY=             -9.0486   ZZ=             -7.1260
   XY=             -8.1138   XZ=              0.0000   YZ=              0.0000
 Traceless Quadrupole moment (field-independent basis, Debye-Ang):
   XX=             -0.8623   YY=             -0.5301   ZZ=              1.3925
   XY=             -8.1138   XZ=              0.0000   YZ=              0.0000
 Octapole moment (field-independent basis, Debye-Ang**2):
  XXX=             14.6232  YYY=             60.1666  ZZZ=              0.0000  XYY=              4.6755
  XXY=             23.9422  XXZ=              0.0000  XZZ=              2.3274  YZZ=             15.2085
  YYZ=              0.0000  XYZ=              0.0000
 Hexadecapole moment (field-independent basis, Debye-Ang**3):
 XXXX=            -23.0824 YYYY=           -215.7657 ZZZZ=             -5.1146 XXXY=            -45.0275
 XXXZ=              0.0000 YYYX=            -48.5160 YYYZ=              0.0000 ZZZX=              0.0000
 ZZZY=              0.0000 XXYY=            -10.6130 XXZZ=             -2.8228 YYZZ=            -34.4528
 XXYZ=              0.0000 YYXZ=              0.0000 ZZXY=             -4.8565
 N-N= 8.811952536523D+00 E-N=-1.989054119824D+02  KE= 7.583648929923D+01
 No NMR shielding tensors so no spin-rotation constants.
 Leave Link  601 at Sat Mar 21 09:45:20 2015, MaxMem=   134217728 cpu:         0.1
 (Enter /opt/g09_D01_em64t/g09/l701.exe)
 Compute integral first derivatives.
 ... and contract with generalized density number  6.
 Leave Link  701 at Sat Mar 21 09:45:20 2015, MaxMem=   134217728 cpu:         0.1
 (Enter /opt/g09_D01_em64t/g09/l702.exe)
 L702 exits ... SP integral derivatives will be done elsewhere.
 Leave Link  702 at Sat Mar 21 09:45:20 2015, MaxMem=   134217728 cpu:         0.0
 (Enter /opt/g09_D01_em64t/g09/l703.exe)
 Compute integral first derivatives, UseDBF=F ICtDFT=           0.
 Integral derivatives from FoFJK, PRISM(SPDF).
 Calling FoFJK, ICntrl=  10005127 FMM=F ISym2X=0 I1Cent= 0 IOpClX= 0 NMat=1 NMatS=1 NMatT=0.
 FoFJK:  IHMeth= 1 ICntrl=10005127 DoSepK=F KAlg= 0 I1Cent=   0 FoldK=F
 IRaf=         0 NMat=   1 IRICut=       1 DoRegI=T DoRafI=F ISym2E= 0.
 FoFCou: FMM=F IPFlag=           0 FMFlag=      100000 FMFlg1=         800
         NFxFlg=           0 DoJE=F BraDBF=F KetDBF=F FulRan=T
         wScrn=  0.000000 ICntrl=10005127 IOpCl=  0 I1Cent=           0 NGrid=           0
         NMat0=    1 NMatS0=      1 NMatT0=    0 NMatD0=    1 NMtDS0=    0 NMtDT0=    0
 Symmetry not used in FoFCou.
 Leave Link  703 at Sat Mar 21 09:45:20 2015, MaxMem=   134217728 cpu:         0.3
 (Enter /opt/g09_D01_em64t/g09/l716.exe)
 Dipole        = 4.83712617D-01 4.77221665D-01 1.04234362D-15
 Cartesian Forces:  Max     0.103569291 RMS     0.044422570
 Leave Link  716 at Sat Mar 21 09:45:20 2015, MaxMem=   134217728 cpu:         0.0
 (Enter /opt/g09_D01_em64t/g09/l120.exe)
 SvSCFP is copying densities from files   528 and   530 to   603.
 ONIOM: saving gridpoint  2
 ONIOM: restoring gridpoint 17
 ONIOM: generating point  1 -- low level on model system.
 ChrgS2: IScale=     5     5     5     5     0     0 (distance 6..1 bonds)
 ChrgS2:  Scale=  1.00  1.00  1.00  1.00  0.00  0.00 (distance 6..1 bonds)

 --------------------------------------------------------------------------------
 #P Test IOp(2/15=1,5/32=2,5/38=1) PM6

 ch2nh2 iop(9/40=20)
 Point  1 -- low level on model system.

 0,1
  O-O_3--0.834000                                  -0.368705030000     -2.194244570000      0.000000000000
  H-H_-0.417000                                     0.591294970000     -2.194244570000      0.000000000000
  H-H_-0.417000                                    -0.689159620000     -1.289308740000      0.000000000000
  O-#6--0.834000                                   -2.347122270000      0.341726610000      0.000000000000
  H-#6-0.417000                                    -1.387122270000      0.341726610000      0.000000000000
  H-#6-0.417000                                    -2.667576860000      1.246662440000      0.000000000000

 1 2 1.000 3 1.000
 2 1 1.000
 3 1 1.000
 4 5 1.000 6 1.000
 5 4 1.000
 6 4 1.000
 
 --------------------------------------------------------------------------------

 Leave Link  120 at Sat Mar 21 09:45:20 2015, MaxMem=   134217728 cpu:         0.0
 (Enter /opt/g09_D01_em64t/g09/l301.exe)
 Standard basis: VSTO-6G (5D, 7F)
 Ernie: Thresh=  0.10000D-02 Tol=  0.10000D-05 Strict=F.
  NNHCO=     0 NNPyr=     0 NCTC=     0               EPep=         0.000000000
    EC=         4.551995958  ECS=         0.519514021   EG=         0.002215514
   EHC=         0.000637522  EAt=       -11.378367803  AtH=         0.260972954
 EPDDG=         0.000000000  ECC=         5.074363015 EAtT=        11.639340758
     6 basis functions,    36 primitive gaussians,     6 cartesian basis functions
     4 alpha electrons        4 beta electrons
       nuclear repulsion energy        16.7137037730 Hartrees.
 IExCor=    0 DFT=F Ex=HF Corr=None ExCW=0 ScaHFX=  1.000000
 ScaDFX=  1.000000  1.000000  1.000000  1.000000 ScalE2=  1.000000  1.000000
 IRadAn=      0 IRanWt=     -1 IRanGd=            0 ICorTp=0 IEmpDi=  4
 Integral buffers will be    131072 words long.
 Regular integral format.
 Two-electron integral symmetry is turned off.
 Leave Link  301 at Sat Mar 21 09:45:20 2015, MaxMem=   134217728 cpu:         0.0
 (Enter /opt/g09_D01_em64t/g09/l302.exe)
 Do NDO integrals.
 NPDir=0 NMtPBC=     1 NCelOv=     1 NCel=       1 NClECP=     1 NCelD=      1
         NCelK=      1 NCelE2=     1 NClLst=     1 CellRange=     0.0.
 One-electron integrals computed using PRISM.
 NBasis=     6 RedAO= F EigKep=  0.00D+00  NBF=     6
 NBsUse=     6 1.00D-04 EigRej=  0.00D+00 NBFU=     6
 Leave Link  302 at Sat Mar 21 09:45:20 2015, MaxMem=   134217728 cpu:         0.0
 (Enter /opt/g09_D01_em64t/g09/l303.exe)
 DipDrv:  MaxL=1.
 Leave Link  303 at Sat Mar 21 09:45:20 2015, MaxMem=   134217728 cpu:         0.0
 (Enter /opt/g09_D01_em64t/g09/l401.exe)
 Simple Huckel Guess.
 JPrj=0 DoOrth=F DoCkMO=F.
 Leave Link  401 at Sat Mar 21 09:45:20 2015, MaxMem=   134217728 cpu:         0.0
 (Enter /opt/g09_D01_em64t/g09/l502.exe)
 Closed shell SCF:
 Using DIIS extrapolation, IDIIS=  1040.
 Overlap will be assumed to be unity.
 Two-electron integral symmetry not used.
 Keep J ints in memory in canonical form, NReq=882397.
 IVT=       79028 IEndB=       79028 NGot=   134217728 MDV=   134138623
 LenX=   134138623 LenY=   134137741
 Requested convergence on RMS density matrix=1.00D-08 within 128 cycles.
 Requested convergence on MAX density matrix=1.00D-06.
 Requested convergence on             energy=1.00D-06.
 No special actions if energy rises.
 FoFCou: FMM=F IPFlag=           0 FMFlag=           0 FMFlg1=           0
         NFxFlg=           0 DoJE=F BraDBF=F KetDBF=F FulRan=T
         wScrn=  0.000000 ICntrl=     600 IOpCl=  2 I1Cent=           0 NGrid=           0
         NMat0=    1 NMatS0=     12 NMatT0=    0 NMatD0=    1 NMtDS0=    0 NMtDT0=    0
 Symmetry not used in FoFCou.

 Cycle   1  Pass 1  IDiag  1:
 E=-0.992968517604709E-02
 DIIS: error= 4.91D-02 at cycle   1 NSaved=   1.
 NSaved= 1 IEnMin= 1 EnMin=-0.992968517604709E-02 IErMin= 1 ErrMin= 4.91D-02
 ErrMax= 4.91D-02  0.00D+00 EMaxC= 1.00D-01 BMatC= 2.24D-02 BMatP= 2.24D-02
 IDIUse=3 WtCom= 5.09D-01 WtEn= 4.91D-01
 Coeff-Com:  0.100D+01
 Coeff-En:   0.100D+01
 Coeff:      0.100D+01
 GapD=    2.000 DampG=2.000 DampE=0.500 DampFc=1.0000 IDamp=-1.
 RMSDP=3.45D-02 MaxDP=1.23D-01              OVMax= 0.00D+00

 Cycle   2  Pass 1  IDiag  1:
 E=-0.672279590000429E-01 Delta-E=       -0.057298273824 Rises=F Damp=F
 DIIS: error= 1.46D-02 at cycle   2 NSaved=   2.
 NSaved= 2 IEnMin= 2 EnMin=-0.672279590000429E-01 IErMin= 2 ErrMin= 1.46D-02
 ErrMax= 1.46D-02  0.00D+00 EMaxC= 1.00D-01 BMatC= 2.75D-03 BMatP= 2.24D-02
 IDIUse=3 WtCom= 8.54D-01 WtEn= 1.46D-01
 Coeff-Com: -0.357D+00 0.136D+01
 Coeff-En:   0.000D+00 0.100D+01
 Coeff:     -0.305D+00 0.131D+01
 RMSDP=2.01D-02 MaxDP=5.07D-02 DE=-5.73D-02 OVMax= 0.00D+00

 Cycle   3  Pass 1  IDiag  3:
 E=-0.791106268610307E-01 Delta-E=       -0.011882667861 Rises=F Damp=F
 DIIS: error= 5.03D-03 at cycle   3 NSaved=   3.
 NSaved= 3 IEnMin= 3 EnMin=-0.791106268610307E-01 IErMin= 3 ErrMin= 5.03D-03
 ErrMax= 5.03D-03  0.00D+00 EMaxC= 1.00D-01 BMatC= 4.03D-04 BMatP= 2.75D-03
 IDIUse=3 WtCom= 9.50D-01 WtEn= 5.03D-02
 Coeff-Com:  0.281D+00-0.141D+01 0.212D+01
 Coeff-En:   0.000D+00 0.000D+00 0.100D+01
 Coeff:      0.267D+00-0.133D+01 0.207D+01
 Gap=     0.575 Goal=   None    Shift=    0.000
 RMSDP=1.51D-02 MaxDP=3.50D-02 DE=-1.19D-02 OVMax= 6.13D-02

 Cycle   4  Pass 1  IDiag  3:
 E=-0.817770037683729E-01 Delta-E=       -0.002666376907 Rises=F Damp=F
 DIIS: error= 3.05D-04 at cycle   4 NSaved=   4.
 NSaved= 4 IEnMin= 4 EnMin=-0.817770037683729E-01 IErMin= 4 ErrMin= 3.05D-04
 ErrMax= 3.05D-04  0.00D+00 EMaxC= 1.00D-01 BMatC= 1.12D-06 BMatP= 4.03D-04
 IDIUse=3 WtCom= 9.97D-01 WtEn= 3.05D-03
 Coeff-Com: -0.226D-01 0.140D+00-0.273D+00 0.116D+01
 Coeff-En:   0.000D+00 0.000D+00 0.000D+00 0.100D+01
 Coeff:     -0.225D-01 0.139D+00-0.272D+00 0.115D+01
 Gap=     0.577 Goal=   None    Shift=    0.000
 RMSDP=6.68D-04 MaxDP=1.65D-03 DE=-2.67D-03 OVMax= 2.75D-03

 Cycle   5  Pass 1  IDiag  3:
 E=-0.817827861262046E-01 Delta-E=       -0.000005782358 Rises=F Damp=F
 DIIS: error= 3.79D-05 at cycle   5 NSaved=   5.
 NSaved= 5 IEnMin= 5 EnMin=-0.817827861262046E-01 IErMin= 5 ErrMin= 3.79D-05
 ErrMax= 3.79D-05  0.00D+00 EMaxC= 1.00D-01 BMatC= 1.53D-08 BMatP= 1.12D-06
 IDIUse=1 WtCom= 1.00D+00 WtEn= 0.00D+00
 Coeff-Com:  0.592D-02-0.420D-01 0.897D-01-0.510D+00 0.146D+01
 Coeff:      0.592D-02-0.420D-01 0.897D-01-0.510D+00 0.146D+01
 Gap=     0.577 Goal=   None    Shift=    0.000
 RMSDP=6.17D-05 MaxDP=1.78D-04 DE=-5.78D-06 OVMax= 1.70D-04

 Cycle   6  Pass 1  IDiag  3:
 E=-0.817828493201169E-01 Delta-E=       -0.000000063194 Rises=F Damp=F
 DIIS: error= 5.01D-06 at cycle   6 NSaved=   6.
 NSaved= 6 IEnMin= 6 EnMin=-0.817828493201169E-01 IErMin= 6 ErrMin= 5.01D-06
 ErrMax= 5.01D-06  0.00D+00 EMaxC= 1.00D-01 BMatC= 3.95D-10 BMatP= 1.53D-08
 IDIUse=1 WtCom= 1.00D+00 WtEn= 0.00D+00
 Coeff-Com: -0.210D-02 0.161D-01-0.347D-01 0.210D+00-0.653D+00 0.146D+01
 Coeff:     -0.210D-02 0.161D-01-0.347D-01 0.210D+00-0.653D+00 0.146D+01
 Gap=     0.577 Goal=   None    Shift=    0.000
 RMSDP=1.18D-05 MaxDP=2.57D-05 DE=-6.32D-08 OVMax= 3.84D-05

 Cycle   7  Pass 1  IDiag  3:
 E=-0.817828506364719E-01 Delta-E=       -0.000000001316 Rises=F Damp=F
 DIIS: error= 1.53D-06 at cycle   7 NSaved=   7.
 NSaved= 7 IEnMin= 7 EnMin=-0.817828506364719E-01 IErMin= 7 ErrMin= 1.53D-06
 ErrMax= 1.53D-06  0.00D+00 EMaxC= 1.00D-01 BMatC= 2.85D-11 BMatP= 3.95D-10
 IDIUse=1 WtCom= 1.00D+00 WtEn= 0.00D+00
 Coeff-Com:  0.559D-04-0.349D-03 0.273D-03 0.184D-02-0.996D-03-0.232D-01
 Coeff-Com:  0.102D+01
 Coeff:      0.559D-04-0.349D-03 0.273D-03 0.184D-02-0.996D-03-0.232D-01
 Coeff:      0.102D+01
 Gap=     0.577 Goal=   None    Shift=    0.000
 RMSDP=3.22D-06 MaxDP=7.04D-06 DE=-1.32D-09 OVMax= 1.22D-05

 Cycle   8  Pass 1  IDiag  3:
 E=-0.817828507581737E-01 Delta-E=       -0.000000000122 Rises=F Damp=F
 DIIS: error= 9.02D-08 at cycle   8 NSaved=   8.
 NSaved= 8 IEnMin= 8 EnMin=-0.817828507581737E-01 IErMin= 8 ErrMin= 9.02D-08
 ErrMax= 9.02D-08  0.00D+00 EMaxC= 1.00D-01 BMatC= 9.02D-14 BMatP= 2.85D-11
 IDIUse=1 WtCom= 1.00D+00 WtEn= 0.00D+00
 Coeff-Com:  0.661D-04-0.517D-03 0.124D-02-0.835D-02 0.246D-01-0.495D-01
 Coeff-Com: -0.232D+00 0.126D+01
 Coeff:      0.661D-04-0.517D-03 0.124D-02-0.835D-02 0.246D-01-0.495D-01
 Coeff:     -0.232D+00 0.126D+01
 Gap=     0.577 Goal=   None    Shift=    0.000
 RMSDP=1.01D-07 MaxDP=1.96D-07 DE=-1.22D-10 OVMax= 3.73D-07

 Cycle   9  Pass 1  IDiag  3:
 E=-0.817828507584828E-01 Delta-E=        0.000000000000 Rises=F Damp=F
 DIIS: error= 3.65D-08 at cycle   9 NSaved=   9.
 NSaved= 9 IEnMin= 9 EnMin=-0.817828507584828E-01 IErMin= 9 ErrMin= 3.65D-08
 ErrMax= 3.65D-08  0.00D+00 EMaxC= 1.00D-01 BMatC= 1.65D-14 BMatP= 9.02D-14
 IDIUse=1 WtCom= 1.00D+00 WtEn= 0.00D+00
 Coeff-Com:  0.142D-05-0.978D-05 0.171D-06 0.129D-03-0.114D-03-0.107D-02
 Coeff-Com:  0.671D-01-0.240D+00 0.117D+01
 Coeff:      0.142D-05-0.978D-05 0.171D-06 0.129D-03-0.114D-03-0.107D-02
 Coeff:      0.671D-01-0.240D+00 0.117D+01
 Gap=     0.577 Goal=   None    Shift=    0.000
 RMSDP=6.63D-08 MaxDP=1.40D-07 DE=-3.09D-13 OVMax= 2.49D-07

 Cycle  10  Pass 1  IDiag  3:
 E=-0.817828507585574E-01 Delta-E=        0.000000000000 Rises=F Damp=F
 DIIS: error= 2.08D-09 at cycle  10 NSaved=  10.
 NSaved=10 IEnMin=10 EnMin=-0.817828507585574E-01 IErMin=10 ErrMin= 2.08D-09
 ErrMax= 2.08D-09  0.00D+00 EMaxC= 1.00D-01 BMatC= 7.30D-17 BMatP= 1.65D-14
 IDIUse=1 WtCom= 1.00D+00 WtEn= 0.00D+00
 Large coefficients: NSaved= 10 BigCof=    0.00 CofMax=   10.00 Det=-5.73D-23
 Inversion failed.  Reducing to  9 matrices.
 Coeff-Com: -0.334D-07 0.708D-06-0.170D-05-0.192D-04 0.123D-03-0.771D-02
 Coeff-Com:  0.351D-01-0.416D+00 0.139D+01
 Coeff:     -0.334D-07 0.708D-06-0.170D-05-0.192D-04 0.123D-03-0.771D-02
 Coeff:      0.351D-01-0.416D+00 0.139D+01
 Gap=     0.577 Goal=   None    Shift=    0.000
 RMSDP=5.83D-09 MaxDP=1.43D-08 DE=-7.46D-14 OVMax= 2.21D-08

 Cycle  11  Pass 2  IDiag  1:
 SCF Done:  E(RPM6) = -0.817828507586E-01 A.U. after   11 cycles
            NFock= 10  Conv=0.58D-08     -V/T= 0.9776
 KE=-3.657075350503D+00 PE=-2.442987004154D+01 EE= 1.129145876825D+01
 Leave Link  502 at Sat Mar 21 09:45:20 2015, MaxMem=   134217728 cpu:         0.0
 (Enter /opt/g09_D01_em64t/g09/l601.exe)
 Copying SCF densities to generalized density rwf, IOpCl= 0 IROHF=0.

 **********************************************************************

            Population analysis using the SCF density.

 **********************************************************************

 Alpha  occ. eigenvalues --   -1.10628  -0.69720  -0.51423  -0.43431
 Alpha virt. eigenvalues --    0.14263   0.22037
          Condensed to atoms (all electrons):
               1          2          3
     1  O    6.615978   0.000000   0.000000
     2  H    0.000000   0.691453   0.000000
     3  H    0.000000   0.000000   0.692569
 Mulliken charges:
               1
     1  O   -0.615978
     2  H    0.308547
     3  H    0.307431
     4  O   -0.834000
     5  H    0.417000
     6  H    0.417000
 Sum of Mulliken charges =   0.00000
 Mulliken charges with hydrogens summed into heavy atoms:
               1
     1  O    0.000000
     4  O    0.000000
 Charge=              0.0000 electrons
 Dipole moment (field-independent basis, Debye):
    X=              2.4585    Y=              3.4730    Z=              0.0000  Tot=              4.2551
 N-N= 1.671370377304D+01 E-N=-2.442987004523D+01  KE=-3.657075350503D+00
 Leave Link  601 at Sat Mar 21 09:45:21 2015, MaxMem=   134217728 cpu:         0.0
 (Enter /opt/g09_D01_em64t/g09/l701.exe)
 Compute integral first derivatives.
 ... and contract with generalized density number  0.
 Leave Link  701 at Sat Mar 21 09:45:21 2015, MaxMem=   134217728 cpu:         0.0
 (Enter /opt/g09_D01_em64t/g09/l702.exe)
 L702 exits ... SP integral derivatives will be done elsewhere.
 Leave Link  702 at Sat Mar 21 09:45:21 2015, MaxMem=   134217728 cpu:         0.0
 (Enter /opt/g09_D01_em64t/g09/l703.exe)
 Compute integral first derivatives, UseDBF=F ICtDFT=           0.
 Integral derivatives from FoFJK, PRISM(SPDF).
 Calling FoFJK, ICntrl=      2127 FMM=F ISym2X=0 I1Cent= 0 IOpClX= 0 NMat=1 NMatS=1 NMatT=0.
 FoFJK:  IHMeth=40 ICntrl=    2127 DoSepK=F KAlg= 0 I1Cent=   0 FoldK=F
 IRaf=         0 NMat=   1 IRICut=       1 DoRegI=T DoRafI=F ISym2E= 0.
 FoFCou: FMM=F IPFlag=           0 FMFlag=      100000 FMFlg1=         800
         NFxFlg=           0 DoJE=F BraDBF=F KetDBF=F FulRan=T
         wScrn=  0.000000 ICntrl=    2127 IOpCl=  0 I1Cent=           0 NGrid=           0
         NMat0=    1 NMatS0=      1 NMatT0=    0 NMatD0=    1 NMtDS0=    0 NMtDT0=    0
 Symmetry not used in FoFCou.
 Leave Link  703 at Sat Mar 21 09:45:21 2015, MaxMem=   134217728 cpu:         0.0
 (Enter /opt/g09_D01_em64t/g09/l716.exe)
 Dipole        = 9.67249428D-01 1.36640229D+00 1.66449560D-16
 Cartesian Forces:  Max     0.009456091 RMS     0.003625973
 Leave Link  716 at Sat Mar 21 09:45:21 2015, MaxMem=   134217728 cpu:         0.0
 (Enter /opt/g09_D01_em64t/g09/l120.exe)
 SvSCFP is copying densities from files   528 and   530 to   603.
 ONIOM: saving gridpoint  1
 ONIOM: restoring gridpoint  3
 ONIOM: calculating energy.
 ONIOM: gridpoint  1 method:  low   system:  model energy:    -0.081782850759
 ONIOM: gridpoint  2 method:  high  system:  model energy:   -76.125093765154
 ONIOM: gridpoint  3 method:  low   system:  real  energy:    -0.169696977887
 ONIOM: extrapolated energy =     -76.213007892282
 ONIOM: calculating first derivatives.
 ONIOM: calculating electric field derivatives.
 ONIOM: Integrating ONIOM file  4 number   619
 ONIOM: Dipole        = 4.18866792D-01 4.38899985D-01 1.06450804D-15
 ONIOM: Dipole moment (Debye):
    X=     1.0647    Y=     1.1156    Z=     0.0000  Tot=     1.5421
 ONIOM: Integrating ONIOM file  5 number   695
 Nuclear Quadrupole Tensors: 
                 1             2             3             4             5 
      1   0.537477D+00 -0.392799D+00  0.173611D+00  0.000000D+00  0.000000D+00
      2   0.113330D+01 -0.169364D-01  0.174944D+00  0.000000D+00  0.000000D+00
      3   0.145090D+01  0.223052D+00 -0.342820D+00  0.000000D+00  0.000000D+00
      4   0.000000D+00  0.000000D+00  0.000000D+00  0.000000D+00  0.000000D+00
      5   0.000000D+00  0.000000D+00  0.000000D+00  0.000000D+00  0.000000D+00
      6  -0.198838D+01  0.169747D+00  0.169209D+00  0.000000D+00  0.000000D+00
                 6 
      1   0.000000D+00
      2   0.000000D+00
      3   0.000000D+00
      4   0.000000D+00
      5   0.000000D+00
      6   0.000000D+00
 Saving ESP charges from gridpoint 3
 Leave Link  120 at Sat Mar 21 09:45:21 2015, MaxMem=   134217728 cpu:         0.0
 (Enter /opt/g09_D01_em64t/g09/l716.exe)
 Dipole        = 4.18866792D-01 4.38899985D-01 1.06450804D-15
 -------------------------------------------------------------------
 Center     Atomic                   Forces (Hartrees/Bohr)
 Number     Number              X              Y              Z
 -------------------------------------------------------------------
      1        8          -0.061192865   -0.105530443    0.000000000
      2        1           0.096081122    0.001141900    0.000000000
      3        1          -0.033803232    0.107346154    0.000000000
      4        8          -0.006166102    0.002889991    0.000000000
      5        1          -0.001999450   -0.001052903    0.000000000
      6        1           0.007080527   -0.004794698    0.000000000
 -------------------------------------------------------------------
 Cartesian Forces:  Max     0.107346154 RMS     0.045279738
 Z-matrix is all fixed cartesians, so copy forces.
 Force constants in Cartesian coordinates: 
                1             2             3             4             5 
      1  0.659745D+00
      2 -0.113428D+00  0.579412D+00
      3  0.000000D+00  0.000000D+00  0.100000D+01
      4 -0.554734D+00  0.000000D+00  0.000000D+00  0.554734D+00
      5 -0.458275D-01 -0.648444D-01  0.000000D+00  0.000000D+00  0.486161D-01
      6  0.000000D+00  0.000000D+00  0.000000D+00  0.000000D+00  0.000000D+00
      7 -0.105011D+00  0.113428D+00  0.000000D+00  0.000000D+00  0.458275D-01
      8  0.159255D+00 -0.514567D+00  0.000000D+00  0.000000D+00  0.162284D-01
      9  0.000000D+00  0.000000D+00  0.000000D+00  0.000000D+00  0.000000D+00
     10  0.000000D+00  0.000000D+00  0.000000D+00  0.000000D+00  0.000000D+00
     11  0.000000D+00  0.000000D+00  0.000000D+00  0.000000D+00  0.000000D+00
     12  0.000000D+00  0.000000D+00  0.000000D+00  0.000000D+00  0.000000D+00
     13  0.000000D+00  0.000000D+00  0.000000D+00  0.000000D+00  0.000000D+00
     14  0.000000D+00  0.000000D+00  0.000000D+00  0.000000D+00  0.000000D+00
     15  0.000000D+00  0.000000D+00  0.000000D+00  0.000000D+00  0.000000D+00
     16  0.000000D+00  0.000000D+00  0.000000D+00  0.000000D+00  0.000000D+00
     17  0.000000D+00  0.000000D+00  0.000000D+00  0.000000D+00  0.000000D+00
     18  0.000000D+00  0.000000D+00  0.000000D+00  0.000000D+00  0.000000D+00
                6             7             8             9            10 
      6  0.100000D+01
      7  0.000000D+00  0.105011D+00
      8  0.000000D+00 -0.159255D+00  0.498339D+00
      9  0.000000D+00  0.000000D+00  0.000000D+00  0.100000D+01
     10  0.000000D+00  0.000000D+00  0.000000D+00  0.000000D+00  0.659745D+00
     11  0.000000D+00  0.000000D+00  0.000000D+00  0.000000D+00 -0.113428D+00
     12  0.000000D+00  0.000000D+00  0.000000D+00  0.000000D+00  0.000000D+00
     13  0.000000D+00  0.000000D+00  0.000000D+00  0.000000D+00 -0.554734D+00
     14  0.000000D+00  0.000000D+00  0.000000D+00  0.000000D+00 -0.458275D-01
     15  0.000000D+00  0.000000D+00  0.000000D+00  0.000000D+00  0.000000D+00
     16  0.000000D+00  0.000000D+00  0.000000D+00  0.000000D+00 -0.105011D+00
     17  0.000000D+00  0.000000D+00  0.000000D+00  0.000000D+00  0.159255D+00
     18  0.000000D+00  0.000000D+00  0.000000D+00  0.000000D+00  0.000000D+00
               11            12            13            14            15 
     11  0.579412D+00
     12  0.000000D+00  0.100000D+01
     13  0.000000D+00  0.000000D+00  0.554734D+00
     14 -0.648444D-01  0.000000D+00  0.000000D+00  0.486161D-01
     15  0.000000D+00  0.000000D+00  0.000000D+00  0.000000D+00  0.100000D+01
     16  0.113428D+00  0.000000D+00  0.000000D+00  0.458275D-01  0.000000D+00
     17 -0.514567D+00  0.000000D+00  0.000000D+00  0.162284D-01  0.000000D+00
     18  0.000000D+00  0.000000D+00  0.000000D+00  0.000000D+00  0.000000D+00
               16            17            18 
     16  0.105011D+00
     17 -0.159255D+00  0.498339D+00
     18  0.000000D+00  0.000000D+00  0.100000D+01
 Leave Link  716 at Sat Mar 21 09:45:21 2015, MaxMem=   134217728 cpu:         0.0
 (Enter /opt/g09_D01_em64t/g09/l103.exe)

 GradGradGradGradGradGradGradGradGradGradGradGradGradGradGradGradGradGrad
 Berny optimization.
 Search for a local minimum.
 Step number   1 out of a maximum of    2
 All quantities printed in internal units (Hartrees-Bohrs-Radians)
 Second derivative matrix not updated -- first step.
 The second derivative matrix:
                          X1        Y1        Z1        X2        Y2
           X1           0.65975
           Y1          -0.11343   0.57941
           Z1           0.00000   0.00000   1.00000
           X2          -0.55473   0.00000   0.00000   0.55473
           Y2          -0.04583  -0.06484   0.00000   0.00000   0.04862
           Z2           0.00000   0.00000   0.00000   0.00000   0.00000
           X3          -0.10501   0.11343   0.00000   0.00000   0.04583
           Y3           0.15926  -0.51457   0.00000   0.00000   0.01623
           Z3           0.00000   0.00000   0.00000   0.00000   0.00000
           X4           0.00000   0.00000   0.00000   0.00000   0.00000
           Y4           0.00000   0.00000   0.00000   0.00000   0.00000
           Z4           0.00000   0.00000   0.00000   0.00000   0.00000
           X5           0.00000   0.00000   0.00000   0.00000   0.00000
           Y5           0.00000   0.00000   0.00000   0.00000   0.00000
           Z5           0.00000   0.00000   0.00000   0.00000   0.00000
           X6           0.00000   0.00000   0.00000   0.00000   0.00000
           Y6           0.00000   0.00000   0.00000   0.00000   0.00000
           Z6           0.00000   0.00000   0.00000   0.00000   0.00000
                          Z2        X3        Y3        Z3        X4
           Z2           1.00000
           X3           0.00000   0.10501
           Y3           0.00000  -0.15926   0.49834
           Z3           0.00000   0.00000   0.00000   1.00000
           X4           0.00000   0.00000   0.00000   0.00000   0.65975
           Y4           0.00000   0.00000   0.00000   0.00000  -0.11343
           Z4           0.00000   0.00000   0.00000   0.00000   0.00000
           X5           0.00000   0.00000   0.00000   0.00000  -0.55473
           Y5           0.00000   0.00000   0.00000   0.00000  -0.04583
           Z5           0.00000   0.00000   0.00000   0.00000   0.00000
           X6           0.00000   0.00000   0.00000   0.00000  -0.10501
           Y6           0.00000   0.00000   0.00000   0.00000   0.15926
           Z6           0.00000   0.00000   0.00000   0.00000   0.00000
                          Y4        Z4        X5        Y5        Z5
           Y4           0.57941
           Z4           0.00000   1.00000
           X5           0.00000   0.00000   0.55473
           Y5          -0.06484   0.00000   0.00000   0.04862
           Z5           0.00000   0.00000   0.00000   0.00000   1.00000
           X6           0.11343   0.00000   0.00000   0.04583   0.00000
           Y6          -0.51457   0.00000   0.00000   0.01623   0.00000
           Z6           0.00000   0.00000   0.00000   0.00000   0.00000
                          X6        Y6        Z6
           X6           0.10501
           Y6          -0.15926   0.49834
           Z6           0.00000   0.00000   1.00000
 ITU=  0
     Eigenvalues ---    0.00000   0.00000   0.00000   0.15415   0.15571
     Eigenvalues ---    0.86595   0.87978   1.00000   1.00000   1.00000
     Eigenvalues ---    1.09960   1.28366
 Eigenvalue     1 is  -4.44D-16 should be greater than     0.000000 Eigenvector:
                          Y2        X3        X6        Y5        Y3
   1                    0.60906  -0.57333   0.30831  -0.30072  -0.29474
                          Y6        Y1        X1        X2        Y4
   1                    0.11939  -0.06855   0.06542   0.06542   0.01425
 Eigenvalue     2 is   2.22D-16 Eigenvector:
                          Y5        X6        Y3        X3        Y1
   1                    0.69337  -0.44244  -0.34494  -0.26333  -0.22663
                          X4        X5        Y2        Y6        Y4
   1                    0.13384   0.13384   0.12779  -0.12204   0.08203
 Eigenvalue     3 is   1.11D-15 Eigenvector:
                          Y6        Y4        X4        X5        Y3
   1                    0.46573   0.34039  -0.34032  -0.34032  -0.33513
                          Y1        X2        X1        Y2        X3
   1                   -0.29995   0.28310   0.28310  -0.19455   0.18374
 Quadratic step=5.785D+01 exceeds max=3.000D-01 adjusted using Lamda=-2.815D-02.
 Angle between NR and scaled steps=  46.73 degrees.
 Angle between quadratic step and forces=  47.33 degrees.
 Linear search not attempted -- first point.
 TrRot= -0.017815 -0.007001  0.000000 -0.000235  0.000000 -0.000235
 Variable       Old X    -DE/DX   Delta X   Delta X   Delta X     New X
                                 (Linear)    (Quad)   (Total)
    X1       -0.69675  -0.06119   0.00000  -0.03114  -0.05091  -0.74766
    Y1       -4.14652  -0.10553   0.00000  -0.01800  -0.02466  -4.17118
    Z1        0.00000   0.00000   0.00000   0.00000   0.00000   0.00000
    X2        1.11739   0.09608   0.00000   0.13582   0.11603   1.23342
    Y2       -4.14652   0.00114   0.00000  -0.05270  -0.06029  -4.20681
    Z2        0.00000   0.00000   0.00000   0.00000   0.00000   0.00000
    X3       -1.30232  -0.03380   0.00000  -0.00950  -0.02837  -1.33069
    Y3       -2.43644   0.10735   0.00000   0.19468   0.18830  -2.24814
    Z3        0.00000   0.00000   0.00000   0.00000   0.00000   0.00000
    X4       -4.43542  -0.00617   0.00000  -0.04489  -0.06240  -4.49782
    Y4        0.64577   0.00289   0.00000  -0.00681  -0.01170   0.63407
    Z4        0.00000   0.00000   0.00000   0.00000   0.00000   0.00000
    X5       -2.62128  -0.00200   0.00000  -0.04556  -0.06313  -2.68441
    Y5        0.64577  -0.00105   0.00000  -0.11466  -0.12041   0.52536
    Z5        0.00000   0.00000   0.00000   0.00000   0.00000   0.00000
    X6       -5.04099   0.00708   0.00000   0.10547   0.08878  -4.95221
    Y6        2.35585  -0.00479   0.00000   0.03344   0.02876   2.38461
    Z6        0.00000   0.00000   0.00000   0.00000   0.00000   0.00000
         Item               Value     Threshold  Converged?
 Maximum Force            0.107346     0.000450     NO 
 RMS     Force            0.045280     0.000300     NO 
 Maximum Displacement     0.188299     0.001800     NO 
 RMS     Displacement     0.069834     0.001200     NO 
 Predicted change in Energy=-2.080402D-02
 GradGradGradGradGradGradGradGradGradGradGradGradGradGradGradGradGradGrad

 Leave Link  103 at Sat Mar 21 09:45:21 2015, MaxMem=   134217728 cpu:         0.0
 (Enter /opt/g09_D01_em64t/g09/l9999.exe)
 1\1\GINC-EAM\Force\ONIOM(B3LYP TD-FC/6-31G(d,p):PM6)\Mixed\H4O2\DULIKA
 I\21-Mar-2015\0\\#p force ONIOM(b3lyp/6-31g(d,p) td(singlet,nstates=3,
 root=1):pm6)=(EmbedCharge,inputfiles) nosymm geom=connectivity\\ch2nh2
  iop(9/40=20)\\0,1\O,-0.36870503,-2.19424457,0.\H,0.59129497,-2.194244
 57,0.\H,-0.68915962,-1.28930874,0.\O,-2.34712227,0.34172661,0.\H,-1.38
 712227,0.34172661,0.\H,-2.66757686,1.24666244,0.\\Version=EM64L-G09Rev
 D.01\HF=-0.0817829\RMSD=5.830e-09\RMSF=4.528e-02\Dipole=0.4188668,0.43
 89,0.\PG=CS [SG(H4O2)]\\@


 IF YOU GIVE A BOY AND A PIG EVERYTHING THEY WANT,
 YOU'LL GET A BAD BOY AND A GOOD PIG.
 Job cpu time:       0 days  0 hours  0 minutes  5.4 seconds.
 File lengths (MBytes):  RWF=      5 Int=      0 D2E=      0 Chk=      3 Scr=      1
 Normal termination of Gaussian 09 at Sat Mar 21 09:45:21 2015.
