 Entering Gaussian System, Link 0=g09
 Input=lowmodel.gjf
 Output=lowmodel.log
 Initial command:
 /opt/g09_D01_em64t/g09/l1.exe "/tmp/Gau-22958.inp" -scrdir="/tmp/"
 Entering Link 1 = /opt/g09_D01_em64t/g09/l1.exe PID=     22959.
  
 Copyright (c) 1988,1990,1992,1993,1995,1998,2003,2009,2013,
            Gaussian, Inc.  All Rights Reserved.
  
 This is part of the Gaussian(R) 09 program.  It is based on
 the Gaussian(R) 03 system (copyright 2003, Gaussian, Inc.),
 the Gaussian(R) 98 system (copyright 1998, Gaussian, Inc.),
 the Gaussian(R) 94 system (copyright 1995, Gaussian, Inc.),
 the Gaussian 92(TM) system (copyright 1992, Gaussian, Inc.),
 the Gaussian 90(TM) system (copyright 1990, Gaussian, Inc.),
 the Gaussian 88(TM) system (copyright 1988, Gaussian, Inc.),
 the Gaussian 86(TM) system (copyright 1986, Carnegie Mellon
 University), and the Gaussian 82(TM) system (copyright 1983,
 Carnegie Mellon University). Gaussian is a federally registered
 trademark of Gaussian, Inc.
  
 This software contains proprietary and confidential information,
 including trade secrets, belonging to Gaussian, Inc.
  
 This software is provided under written license and may be
 used, copied, transmitted, or stored only in accord with that
 written license.
  
 The following legend is applicable only to US Government
 contracts under FAR:
  
                    RESTRICTED RIGHTS LEGEND
  
 Use, reproduction and disclosure by the US Government is
 subject to restrictions as set forth in subparagraphs (a)
 and (c) of the Commercial Computer Software - Restricted
 Rights clause in FAR 52.227-19.
  
 Gaussian, Inc.
 340 Quinnipiac St., Bldg. 40, Wallingford CT 06492
  
  
 ---------------------------------------------------------------
 Warning -- This program may not be used in any manner that
 competes with the business of Gaussian, Inc. or will provide
 assistance to any competitor of Gaussian, Inc.  The licensee
 of this program is prohibited from giving any competitor of
 Gaussian, Inc. access to this program.  By using this program,
 the user acknowledges that Gaussian, Inc. is engaged in the
 business of creating and licensing software in the field of
 computational chemistry and represents and warrants to the
 licensee that it is not a competitor of Gaussian, Inc. and that
 it will not use this program in any manner prohibited above.
 ---------------------------------------------------------------
  

 Cite this work as:
 Gaussian 09, Revision D.01,
 M. J. Frisch, G. W. Trucks, H. B. Schlegel, G. E. Scuseria, 
 M. A. Robb, J. R. Cheeseman, G. Scalmani, V. Barone, B. Mennucci, 
 G. A. Petersson, H. Nakatsuji, M. Caricato, X. Li, H. P. Hratchian, 
 A. F. Izmaylov, J. Bloino, G. Zheng, J. L. Sonnenberg, M. Hada, 
 M. Ehara, K. Toyota, R. Fukuda, J. Hasegawa, M. Ishida, T. Nakajima, 
 Y. Honda, O. Kitao, H. Nakai, T. Vreven, J. A. Montgomery, Jr., 
 J. E. Peralta, F. Ogliaro, M. Bearpark, J. J. Heyd, E. Brothers, 
 K. N. Kudin, V. N. Staroverov, T. Keith, R. Kobayashi, J. Normand, 
 K. Raghavachari, A. Rendell, J. C. Burant, S. S. Iyengar, J. Tomasi, 
 M. Cossi, N. Rega, J. M. Millam, M. Klene, J. E. Knox, J. B. Cross, 
 V. Bakken, C. Adamo, J. Jaramillo, R. Gomperts, R. E. Stratmann, 
 O. Yazyev, A. J. Austin, R. Cammi, C. Pomelli, J. W. Ochterski, 
 R. L. Martin, K. Morokuma, V. G. Zakrzewski, G. A. Voth, 
 P. Salvador, J. J. Dannenberg, S. Dapprich, A. D. Daniels, 
 O. Farkas, J. B. Foresman, J. V. Ortiz, J. Cioslowski, 
 and D. J. Fox, Gaussian, Inc., Wallingford CT, 2013.
 
 ******************************************
 Gaussian 09:  EM64L-G09RevD.01 24-Apr-2013
                21-Mar-2015 
 ******************************************
 -------------------------------------------
 #P force Test IOp(2/15=1,5/32=2,5/38=1) PM6
 -------------------------------------------
 1/10=7,30=1,38=1/1,3;
 2/12=2,15=1,17=6,18=5,40=1/2;
 3/5=2,16=1,25=1,41=3900000,71=1/1,2,3;
 4/35=1/1;
 5/5=2,32=2,35=1,38=1/2;
 6/7=2,8=2,9=2,10=2,28=1/1;
 7/29=1/1,2,3,16;
 1/10=7,30=1/3;
 99//99;
 Leave Link    1 at Sat Mar 21 09:45:38 2015, MaxMem=           0 cpu:         0.0
 (Enter /opt/g09_D01_em64t/g09/l101.exe)
 ---------------------------------------------------------
 ch2nh2 iop(9/40=20) Point 1 -- low level on model system.
 ---------------------------------------------------------
 Symbolic Z-matrix:
 Charge =  0 Multiplicity = 1
 O-O_3--0.834000      -0.36871  -2.19424   0. 
 H-H_-0.417000         0.59129  -2.19424   0. 
 H-H_-0.417000        -0.68916  -1.28931   0. 
 O-#6--0.834000       -2.34712   0.34173   0. 
 H-#6-0.417000        -1.38712   0.34173   0. 
 H-#6-0.417000        -2.66758   1.24666   0. 
 
 NAtoms=      6 NQM=        6 NQMF=       0 NMMI=      0 NMMIF=      0
                NMic=       0 NMicF=      0.
                    Isotopes and Nuclear Properties:
 (Nuclear quadrupole moments (NQMom) in fm**2, nuclear magnetic moments (NMagM)
  in nuclear magnetons)

  Atom         1           2           3           4           5           6
 IAtWgt=          16           1           1          16           1           1
 AtmWgt=  15.9949146   1.0078250   1.0078250  15.9949146   1.0078250   1.0078250
 NucSpn=           0           1           1           0           1           1
 AtZEff=   0.0000000   0.0000000   0.0000000   0.0000000   0.0000000   0.0000000
 NQMom=    0.0000000   0.0000000   0.0000000   0.0000000   0.0000000   0.0000000
 NMagM=    0.0000000   2.7928460   2.7928460   0.0000000   2.7928460   2.7928460
 AtZNuc=   8.0000000   1.0000000   1.0000000   8.0000000   1.0000000   1.0000000
 MM Charge=              0.0000 electrons
 MM Dipole moment (Debye):
    X=              2.5619    Y=              3.6251    Z=              0.0000  Tot=              4.4390
 MM Quadrupole moment (Debye-Ang):
   XX=             -2.8546   YY=             -3.4350   ZZ=              0.0000
   XY=             -8.4572   XZ=              0.0000   YZ=              0.0000
 MM Traceless Quadrupole moment (Debye-Ang):
   XX=             -0.7581   YY=             -1.3385   ZZ=              2.0965
   XY=             -8.4572   XZ=              0.0000   YZ=              0.0000
 MM Octapole moment (Debye-Ang**2):
  XXX=              8.3899  YYY=             20.6684  ZZZ=              0.0000  XYY=              2.9885
  XXY=              9.9759  XXZ=              0.0000  XZZ=              0.0000  YZZ=              0.0000
  YYZ=              0.0000  XYZ=              0.0000
 MM Hexadecapole moment (Debye-Ang**3):
 XXXX=            -12.1133 YYYY=            -36.0856 ZZZZ=              0.0000 XXXY=            -32.0291
 XXXZ=              0.0000 YYYX=            -35.2452 YYYZ=              0.0000 ZZZX=              0.0000
 ZZZY=              0.0000 XXYY=             22.3553 XXZZ=              0.0000 YYZZ=              0.0000
 XXYZ=              0.0000 YYXZ=              0.0000 ZZXY=              0.0000
 Leave Link  101 at Sat Mar 21 09:45:38 2015, MaxMem=    33554432 cpu:         0.1
 (Enter /opt/g09_D01_em64t/g09/l103.exe)

 GradGradGradGradGradGradGradGradGradGradGradGradGradGradGradGradGradGrad
 Berny optimization.
 Initialization pass.
 Trust Radius=3.00D-01 FncErr=1.00D-07 GrdErr=1.00D-07
 Number of steps in this run=      2 maximum allowed number of steps=      2.
 GradGradGradGradGradGradGradGradGradGradGradGradGradGradGradGradGradGrad

 Leave Link  103 at Sat Mar 21 09:45:38 2015, MaxMem=    33554432 cpu:         0.0
 (Enter /opt/g09_D01_em64t/g09/l202.exe)
                          Input orientation:                          
 ---------------------------------------------------------------------
 Center     Atomic      Atomic             Coordinates (Angstroms)
 Number     Number       Type             X           Y           Z
 ---------------------------------------------------------------------
      1          8    10081003       -0.368705   -2.194245    0.000000
      2          1    10011000        0.591295   -2.194245    0.000000
      3          1    10011000       -0.689160   -1.289309    0.000000
      4          8           6       -2.347122    0.341727    0.000000
      5          1           6       -1.387122    0.341727    0.000000
      6          1           6       -2.667577    1.246662    0.000000
 ---------------------------------------------------------------------
                    Distance matrix (angstroms):
                    1          2          3          4          5
     1  O    0.000000
     2  H    0.960000   0.000000
     3  H    0.960000   1.567952   0.000000
     4  O    3.216409   3.881423   2.325751   0.000000
     5  H    2.732823   3.216409   1.774099   0.960000   0.000000
     6  H    4.138194   4.739207   3.216409   0.960000   1.567952
                    6
     6  H    0.000000
 Symmetry turned off by external request.
 Stoichiometry    H4O2
 Framework group  CS[SG(H4O2)]
 Deg. of freedom     9
 Full point group                 CS      NOp   2
 Rotational constants (GHZ):    416.7917648      5.2904637      5.2241519
 Leave Link  202 at Sat Mar 21 09:45:38 2015, MaxMem=    33554432 cpu:         0.0
 (Enter /opt/g09_D01_em64t/g09/l301.exe)
 Standard basis: VSTO-6G (5D, 7F)
 Ernie: Thresh=  0.10000D-02 Tol=  0.10000D-05 Strict=F.
  NNHCO=     0 NNPyr=     0 NCTC=     0               EPep=         0.000000000
    EC=         4.551995958  ECS=         0.519514021   EG=         0.002215514
   EHC=         0.000637522  EAt=       -11.378367803  AtH=         0.260972954
 EPDDG=         0.000000000  ECC=         5.074363015 EAtT=        11.639340758
     6 basis functions,    36 primitive gaussians,     6 cartesian basis functions
     4 alpha electrons        4 beta electrons
       nuclear repulsion energy        16.7137037730 Hartrees.
 IExCor=    0 DFT=F Ex=HF Corr=None ExCW=0 ScaHFX=  1.000000
 ScaDFX=  1.000000  1.000000  1.000000  1.000000 ScalE2=  1.000000  1.000000
 IRadAn=      0 IRanWt=     -1 IRanGd=            0 ICorTp=0 IEmpDi=  4
 Integral buffers will be    131072 words long.
 Regular integral format.
 Two-electron integral symmetry is turned off.
 Leave Link  301 at Sat Mar 21 09:45:38 2015, MaxMem=    33554432 cpu:         0.0
 (Enter /opt/g09_D01_em64t/g09/l302.exe)
 Do NDO integrals.
 NPDir=0 NMtPBC=     1 NCelOv=     1 NCel=       1 NClECP=     1 NCelD=      1
         NCelK=      1 NCelE2=     1 NClLst=     1 CellRange=     0.0.
 One-electron integrals computed using PRISM.
 NBasis=     6 RedAO= F EigKep=  0.00D+00  NBF=     6
 NBsUse=     6 1.00D-04 EigRej=  0.00D+00 NBFU=     6
 Leave Link  302 at Sat Mar 21 09:45:39 2015, MaxMem=    33554432 cpu:         0.0
 (Enter /opt/g09_D01_em64t/g09/l303.exe)
 DipDrv:  MaxL=1.
 Leave Link  303 at Sat Mar 21 09:45:39 2015, MaxMem=    33554432 cpu:         0.0
 (Enter /opt/g09_D01_em64t/g09/l401.exe)
 Simple Huckel Guess.
 JPrj=0 DoOrth=F DoCkMO=F.
 Leave Link  401 at Sat Mar 21 09:45:39 2015, MaxMem=    33554432 cpu:         0.0
 (Enter /opt/g09_D01_em64t/g09/l502.exe)
 Closed shell SCF:
 Using DIIS extrapolation, IDIIS=  1040.
 Overlap will be assumed to be unity.
 Two-electron integral symmetry not used.
 Keep J ints in memory in canonical form, NReq=882397.
 IVT=       79028 IEndB=       79028 NGot=    33554432 MDV=    33475327
 LenX=    33475327 LenY=    33474445
 Requested convergence on RMS density matrix=1.00D-08 within 128 cycles.
 Requested convergence on MAX density matrix=1.00D-06.
 Requested convergence on             energy=1.00D-06.
 No special actions if energy rises.
 FoFCou: FMM=F IPFlag=           0 FMFlag=           0 FMFlg1=           0
         NFxFlg=           0 DoJE=F BraDBF=F KetDBF=F FulRan=T
         wScrn=  0.000000 ICntrl=     600 IOpCl=  2 I1Cent=           0 NGrid=           0
         NMat0=    1 NMatS0=     12 NMatT0=    0 NMatD0=    1 NMtDS0=    0 NMtDT0=    0
 Symmetry not used in FoFCou.

 Cycle   1  Pass 1  IDiag  1:
 E=-0.992968517603643E-02
 DIIS: error= 4.91D-02 at cycle   1 NSaved=   1.
 NSaved= 1 IEnMin= 1 EnMin=-0.992968517603643E-02 IErMin= 1 ErrMin= 4.91D-02
 ErrMax= 4.91D-02  0.00D+00 EMaxC= 1.00D-01 BMatC= 2.24D-02 BMatP= 2.24D-02
 IDIUse=3 WtCom= 5.09D-01 WtEn= 4.91D-01
 Coeff-Com:  0.100D+01
 Coeff-En:   0.100D+01
 Coeff:      0.100D+01
 GapD=    2.000 DampG=2.000 DampE=0.500 DampFc=1.0000 IDamp=-1.
 RMSDP=3.45D-02 MaxDP=1.23D-01              OVMax= 0.00D+00

 Cycle   2  Pass 1  IDiag  1:
 E=-0.672279590000464E-01 Delta-E=       -0.057298273824 Rises=F Damp=F
 DIIS: error= 1.46D-02 at cycle   2 NSaved=   2.
 NSaved= 2 IEnMin= 2 EnMin=-0.672279590000464E-01 IErMin= 2 ErrMin= 1.46D-02
 ErrMax= 1.46D-02  0.00D+00 EMaxC= 1.00D-01 BMatC= 2.75D-03 BMatP= 2.24D-02
 IDIUse=3 WtCom= 8.54D-01 WtEn= 1.46D-01
 Coeff-Com: -0.357D+00 0.136D+01
 Coeff-En:   0.000D+00 0.100D+01
 Coeff:     -0.305D+00 0.131D+01
 RMSDP=2.01D-02 MaxDP=5.07D-02 DE=-5.73D-02 OVMax= 0.00D+00

 Cycle   3  Pass 1  IDiag  3:
 E=-0.791106268610307E-01 Delta-E=       -0.011882667861 Rises=F Damp=F
 DIIS: error= 5.03D-03 at cycle   3 NSaved=   3.
 NSaved= 3 IEnMin= 3 EnMin=-0.791106268610307E-01 IErMin= 3 ErrMin= 5.03D-03
 ErrMax= 5.03D-03  0.00D+00 EMaxC= 1.00D-01 BMatC= 4.03D-04 BMatP= 2.75D-03
 IDIUse=3 WtCom= 9.50D-01 WtEn= 5.03D-02
 Coeff-Com:  0.281D+00-0.141D+01 0.212D+01
 Coeff-En:   0.000D+00 0.000D+00 0.100D+01
 Coeff:      0.267D+00-0.133D+01 0.207D+01
 Gap=     0.575 Goal=   None    Shift=    0.000
 RMSDP=1.51D-02 MaxDP=3.50D-02 DE=-1.19D-02 OVMax= 6.13D-02

 Cycle   4  Pass 1  IDiag  3:
 E=-0.817770037683729E-01 Delta-E=       -0.002666376907 Rises=F Damp=F
 DIIS: error= 3.05D-04 at cycle   4 NSaved=   4.
 NSaved= 4 IEnMin= 4 EnMin=-0.817770037683729E-01 IErMin= 4 ErrMin= 3.05D-04
 ErrMax= 3.05D-04  0.00D+00 EMaxC= 1.00D-01 BMatC= 1.12D-06 BMatP= 4.03D-04
 IDIUse=3 WtCom= 9.97D-01 WtEn= 3.05D-03
 Coeff-Com: -0.226D-01 0.140D+00-0.273D+00 0.116D+01
 Coeff-En:   0.000D+00 0.000D+00 0.000D+00 0.100D+01
 Coeff:     -0.225D-01 0.139D+00-0.272D+00 0.115D+01
 Gap=     0.577 Goal=   None    Shift=    0.000
 RMSDP=6.68D-04 MaxDP=1.65D-03 DE=-2.67D-03 OVMax= 2.75D-03

 Cycle   5  Pass 1  IDiag  3:
 E=-0.817827861261975E-01 Delta-E=       -0.000005782358 Rises=F Damp=F
 DIIS: error= 3.79D-05 at cycle   5 NSaved=   5.
 NSaved= 5 IEnMin= 5 EnMin=-0.817827861261975E-01 IErMin= 5 ErrMin= 3.79D-05
 ErrMax= 3.79D-05  0.00D+00 EMaxC= 1.00D-01 BMatC= 1.53D-08 BMatP= 1.12D-06
 IDIUse=1 WtCom= 1.00D+00 WtEn= 0.00D+00
 Coeff-Com:  0.592D-02-0.420D-01 0.897D-01-0.510D+00 0.146D+01
 Coeff:      0.592D-02-0.420D-01 0.897D-01-0.510D+00 0.146D+01
 Gap=     0.577 Goal=   None    Shift=    0.000
 RMSDP=6.17D-05 MaxDP=1.78D-04 DE=-5.78D-06 OVMax= 1.70D-04

 Cycle   6  Pass 1  IDiag  3:
 E=-0.817828493201205E-01 Delta-E=       -0.000000063194 Rises=F Damp=F
 DIIS: error= 5.01D-06 at cycle   6 NSaved=   6.
 NSaved= 6 IEnMin= 6 EnMin=-0.817828493201205E-01 IErMin= 6 ErrMin= 5.01D-06
 ErrMax= 5.01D-06  0.00D+00 EMaxC= 1.00D-01 BMatC= 3.95D-10 BMatP= 1.53D-08
 IDIUse=1 WtCom= 1.00D+00 WtEn= 0.00D+00
 Coeff-Com: -0.210D-02 0.161D-01-0.347D-01 0.210D+00-0.653D+00 0.146D+01
 Coeff:     -0.210D-02 0.161D-01-0.347D-01 0.210D+00-0.653D+00 0.146D+01
 Gap=     0.577 Goal=   None    Shift=    0.000
 RMSDP=1.18D-05 MaxDP=2.57D-05 DE=-6.32D-08 OVMax= 3.84D-05

 Cycle   7  Pass 1  IDiag  3:
 E=-0.817828506364826E-01 Delta-E=       -0.000000001316 Rises=F Damp=F
 DIIS: error= 1.53D-06 at cycle   7 NSaved=   7.
 NSaved= 7 IEnMin= 7 EnMin=-0.817828506364826E-01 IErMin= 7 ErrMin= 1.53D-06
 ErrMax= 1.53D-06  0.00D+00 EMaxC= 1.00D-01 BMatC= 2.85D-11 BMatP= 3.95D-10
 IDIUse=1 WtCom= 1.00D+00 WtEn= 0.00D+00
 Coeff-Com:  0.559D-04-0.349D-03 0.273D-03 0.184D-02-0.996D-03-0.232D-01
 Coeff-Com:  0.102D+01
 Coeff:      0.559D-04-0.349D-03 0.273D-03 0.184D-02-0.996D-03-0.232D-01
 Coeff:      0.102D+01
 Gap=     0.577 Goal=   None    Shift=    0.000
 RMSDP=3.22D-06 MaxDP=7.04D-06 DE=-1.32D-09 OVMax= 1.22D-05

 Cycle   8  Pass 1  IDiag  3:
 E=-0.817828507581702E-01 Delta-E=       -0.000000000122 Rises=F Damp=F
 DIIS: error= 9.02D-08 at cycle   8 NSaved=   8.
 NSaved= 8 IEnMin= 8 EnMin=-0.817828507581702E-01 IErMin= 8 ErrMin= 9.02D-08
 ErrMax= 9.02D-08  0.00D+00 EMaxC= 1.00D-01 BMatC= 9.02D-14 BMatP= 2.85D-11
 IDIUse=1 WtCom= 1.00D+00 WtEn= 0.00D+00
 Coeff-Com:  0.661D-04-0.517D-03 0.124D-02-0.835D-02 0.246D-01-0.495D-01
 Coeff-Com: -0.232D+00 0.126D+01
 Coeff:      0.661D-04-0.517D-03 0.124D-02-0.835D-02 0.246D-01-0.495D-01
 Coeff:     -0.232D+00 0.126D+01
 Gap=     0.577 Goal=   None    Shift=    0.000
 RMSDP=1.01D-07 MaxDP=1.96D-07 DE=-1.22D-10 OVMax= 3.73D-07

 Cycle   9  Pass 1  IDiag  3:
 E=-0.817828507584935E-01 Delta-E=        0.000000000000 Rises=F Damp=F
 DIIS: error= 3.65D-08 at cycle   9 NSaved=   9.
 NSaved= 9 IEnMin= 9 EnMin=-0.817828507584935E-01 IErMin= 9 ErrMin= 3.65D-08
 ErrMax= 3.65D-08  0.00D+00 EMaxC= 1.00D-01 BMatC= 1.65D-14 BMatP= 9.02D-14
 IDIUse=1 WtCom= 1.00D+00 WtEn= 0.00D+00
 Coeff-Com:  0.142D-05-0.978D-05 0.171D-06 0.129D-03-0.114D-03-0.107D-02
 Coeff-Com:  0.671D-01-0.240D+00 0.117D+01
 Coeff:      0.142D-05-0.978D-05 0.171D-06 0.129D-03-0.114D-03-0.107D-02
 Coeff:      0.671D-01-0.240D+00 0.117D+01
 Gap=     0.577 Goal=   None    Shift=    0.000
 RMSDP=6.63D-08 MaxDP=1.40D-07 DE=-3.23D-13 OVMax= 2.49D-07

 Cycle  10  Pass 1  IDiag  3:
 E=-0.817828507585645E-01 Delta-E=        0.000000000000 Rises=F Damp=F
 DIIS: error= 2.08D-09 at cycle  10 NSaved=  10.
 NSaved=10 IEnMin=10 EnMin=-0.817828507585645E-01 IErMin=10 ErrMin= 2.08D-09
 ErrMax= 2.08D-09  0.00D+00 EMaxC= 1.00D-01 BMatC= 7.30D-17 BMatP= 1.65D-14
 IDIUse=1 WtCom= 1.00D+00 WtEn= 0.00D+00
 Large coefficients: NSaved= 10 BigCof=    0.00 CofMax=   10.00 Det=-5.73D-23
 Inversion failed.  Reducing to  9 matrices.
 Coeff-Com: -0.334D-07 0.708D-06-0.169D-05-0.192D-04 0.123D-03-0.771D-02
 Coeff-Com:  0.351D-01-0.416D+00 0.139D+01
 Coeff:     -0.334D-07 0.708D-06-0.169D-05-0.192D-04 0.123D-03-0.771D-02
 Coeff:      0.351D-01-0.416D+00 0.139D+01
 Gap=     0.577 Goal=   None    Shift=    0.000
 RMSDP=5.83D-09 MaxDP=1.43D-08 DE=-7.11D-14 OVMax= 2.21D-08

 Cycle  11  Pass 2  IDiag  1:
 SCF Done:  E(RPM6) = -0.817828507586E-01 A.U. after   11 cycles
            NFock= 10  Conv=0.58D-08     -V/T= 0.9776
 KE=-3.657075350503D+00 PE=-2.442987004154D+01 EE= 1.129145876825D+01
 Leave Link  502 at Sat Mar 21 09:45:39 2015, MaxMem=    33554432 cpu:         0.0
 (Enter /opt/g09_D01_em64t/g09/l601.exe)
 Copying SCF densities to generalized density rwf, IOpCl= 0 IROHF=0.

 **********************************************************************

            Population analysis using the SCF density.

 **********************************************************************

 Alpha  occ. eigenvalues --   -1.10628  -0.69720  -0.51423  -0.43431
 Alpha virt. eigenvalues --    0.14263   0.22037
          Condensed to atoms (all electrons):
               1          2          3
     1  O    6.615978   0.000000   0.000000
     2  H    0.000000   0.691453   0.000000
     3  H    0.000000   0.000000   0.692569
 Mulliken charges:
               1
     1  O   -0.615978
     2  H    0.308547
     3  H    0.307431
     4  O   -0.834000
     5  H    0.417000
     6  H    0.417000
 Sum of Mulliken charges =   0.00000
 Mulliken charges with hydrogens summed into heavy atoms:
               1
     1  O    0.000000
     4  O    0.000000
 Charge=              0.0000 electrons
 Dipole moment (field-independent basis, Debye):
    X=              2.4585    Y=              3.4730    Z=              0.0000  Tot=              4.2551
 N-N= 1.671370377304D+01 E-N=-2.442987004523D+01  KE=-3.657075350503D+00
 Leave Link  601 at Sat Mar 21 09:45:39 2015, MaxMem=    33554432 cpu:         0.0
 (Enter /opt/g09_D01_em64t/g09/l701.exe)
 Compute integral first derivatives.
 ... and contract with generalized density number  0.
 Leave Link  701 at Sat Mar 21 09:45:39 2015, MaxMem=    33554432 cpu:         0.0
 (Enter /opt/g09_D01_em64t/g09/l702.exe)
 L702 exits ... SP integral derivatives will be done elsewhere.
 Leave Link  702 at Sat Mar 21 09:45:39 2015, MaxMem=    33554432 cpu:         0.0
 (Enter /opt/g09_D01_em64t/g09/l703.exe)
 Compute integral first derivatives, UseDBF=F ICtDFT=           0.
 Integral derivatives from FoFJK, PRISM(SPDF).
 Calling FoFJK, ICntrl=      2127 FMM=F ISym2X=0 I1Cent= 0 IOpClX= 0 NMat=1 NMatS=1 NMatT=0.
 FoFJK:  IHMeth=40 ICntrl=    2127 DoSepK=F KAlg= 0 I1Cent=   0 FoldK=F
 IRaf=         0 NMat=   1 IRICut=       1 DoRegI=T DoRafI=F ISym2E= 0.
 FoFCou: FMM=F IPFlag=           0 FMFlag=      100000 FMFlg1=         800
         NFxFlg=           0 DoJE=F BraDBF=F KetDBF=F FulRan=T
         wScrn=  0.000000 ICntrl=    2127 IOpCl=  0 I1Cent=           0 NGrid=           0
         NMat0=    1 NMatS0=      1 NMatT0=    0 NMatD0=    1 NMtDS0=    0 NMtDT0=    0
 Symmetry not used in FoFCou.
 Leave Link  703 at Sat Mar 21 09:45:39 2015, MaxMem=    33554432 cpu:         0.0
 (Enter /opt/g09_D01_em64t/g09/l716.exe)
 Dipole        = 9.67249428D-01 1.36640229D+00 2.72068122D-16
 -------------------------------------------------------------------
 Center     Atomic                   Forces (Hartrees/Bohr)
 Number     Number              X              Y              Z
 -------------------------------------------------------------------
      1        8           0.002086818    0.001868555    0.000000000
      2        1          -0.006824248    0.003666294    0.000000000
      3        1           0.004794044   -0.009456091    0.000000000
      4        8           0.004312341   -0.001346741    0.000000000
      5        1          -0.003378953    0.004838090    0.000000000
      6        1          -0.000990002    0.000429893    0.000000000
 -------------------------------------------------------------------
 Cartesian Forces:  Max     0.009456091 RMS     0.003625973
 Z-matrix is all fixed cartesians, so copy forces.
 Force constants in Cartesian coordinates: 
                1             2             3             4             5 
      1  0.659745D+00
      2 -0.113428D+00  0.579412D+00
      3  0.000000D+00  0.000000D+00  0.100000D+01
      4 -0.554734D+00  0.000000D+00  0.000000D+00  0.554734D+00
      5 -0.458275D-01 -0.648444D-01  0.000000D+00  0.000000D+00  0.486161D-01
      6  0.000000D+00  0.000000D+00  0.000000D+00  0.000000D+00  0.000000D+00
      7 -0.105011D+00  0.113428D+00  0.000000D+00  0.000000D+00  0.458275D-01
      8  0.159255D+00 -0.514567D+00  0.000000D+00  0.000000D+00  0.162284D-01
      9  0.000000D+00  0.000000D+00  0.000000D+00  0.000000D+00  0.000000D+00
     10  0.000000D+00  0.000000D+00  0.000000D+00  0.000000D+00  0.000000D+00
     11  0.000000D+00  0.000000D+00  0.000000D+00  0.000000D+00  0.000000D+00
     12  0.000000D+00  0.000000D+00  0.000000D+00  0.000000D+00  0.000000D+00
     13  0.000000D+00  0.000000D+00  0.000000D+00  0.000000D+00  0.000000D+00
     14  0.000000D+00  0.000000D+00  0.000000D+00  0.000000D+00  0.000000D+00
     15  0.000000D+00  0.000000D+00  0.000000D+00  0.000000D+00  0.000000D+00
     16  0.000000D+00  0.000000D+00  0.000000D+00  0.000000D+00  0.000000D+00
     17  0.000000D+00  0.000000D+00  0.000000D+00  0.000000D+00  0.000000D+00
     18  0.000000D+00  0.000000D+00  0.000000D+00  0.000000D+00  0.000000D+00
                6             7             8             9            10 
      6  0.100000D+01
      7  0.000000D+00  0.105011D+00
      8  0.000000D+00 -0.159255D+00  0.498339D+00
      9  0.000000D+00  0.000000D+00  0.000000D+00  0.100000D+01
     10  0.000000D+00  0.000000D+00  0.000000D+00  0.000000D+00  0.659745D+00
     11  0.000000D+00  0.000000D+00  0.000000D+00  0.000000D+00 -0.113428D+00
     12  0.000000D+00  0.000000D+00  0.000000D+00  0.000000D+00  0.000000D+00
     13  0.000000D+00  0.000000D+00  0.000000D+00  0.000000D+00 -0.554734D+00
     14  0.000000D+00  0.000000D+00  0.000000D+00  0.000000D+00 -0.458275D-01
     15  0.000000D+00  0.000000D+00  0.000000D+00  0.000000D+00  0.000000D+00
     16  0.000000D+00  0.000000D+00  0.000000D+00  0.000000D+00 -0.105011D+00
     17  0.000000D+00  0.000000D+00  0.000000D+00  0.000000D+00  0.159255D+00
     18  0.000000D+00  0.000000D+00  0.000000D+00  0.000000D+00  0.000000D+00
               11            12            13            14            15 
     11  0.579412D+00
     12  0.000000D+00  0.100000D+01
     13  0.000000D+00  0.000000D+00  0.554734D+00
     14 -0.648444D-01  0.000000D+00  0.000000D+00  0.486161D-01
     15  0.000000D+00  0.000000D+00  0.000000D+00  0.000000D+00  0.100000D+01
     16  0.113428D+00  0.000000D+00  0.000000D+00  0.458275D-01  0.000000D+00
     17 -0.514567D+00  0.000000D+00  0.000000D+00  0.162284D-01  0.000000D+00
     18  0.000000D+00  0.000000D+00  0.000000D+00  0.000000D+00  0.000000D+00
               16            17            18 
     16  0.105011D+00
     17 -0.159255D+00  0.498339D+00
     18  0.000000D+00  0.000000D+00  0.100000D+01
 Leave Link  716 at Sat Mar 21 09:45:39 2015, MaxMem=    33554432 cpu:         0.0
 (Enter /opt/g09_D01_em64t/g09/l103.exe)

 GradGradGradGradGradGradGradGradGradGradGradGradGradGradGradGradGradGrad
 Berny optimization.
 Search for a local minimum.
 Step number   1 out of a maximum of    2
 All quantities printed in internal units (Hartrees-Bohrs-Radians)
 Second derivative matrix not updated -- first step.
 The second derivative matrix:
                          X1        Y1        Z1        X2        Y2
           X1           0.65975
           Y1          -0.11343   0.57941
           Z1           0.00000   0.00000   1.00000
           X2          -0.55473   0.00000   0.00000   0.55473
           Y2          -0.04583  -0.06484   0.00000   0.00000   0.04862
           Z2           0.00000   0.00000   0.00000   0.00000   0.00000
           X3          -0.10501   0.11343   0.00000   0.00000   0.04583
           Y3           0.15926  -0.51457   0.00000   0.00000   0.01623
           Z3           0.00000   0.00000   0.00000   0.00000   0.00000
           X4           0.00000   0.00000   0.00000   0.00000   0.00000
           Y4           0.00000   0.00000   0.00000   0.00000   0.00000
           Z4           0.00000   0.00000   0.00000   0.00000   0.00000
           X5           0.00000   0.00000   0.00000   0.00000   0.00000
           Y5           0.00000   0.00000   0.00000   0.00000   0.00000
           Z5           0.00000   0.00000   0.00000   0.00000   0.00000
           X6           0.00000   0.00000   0.00000   0.00000   0.00000
           Y6           0.00000   0.00000   0.00000   0.00000   0.00000
           Z6           0.00000   0.00000   0.00000   0.00000   0.00000
                          Z2        X3        Y3        Z3        X4
           Z2           1.00000
           X3           0.00000   0.10501
           Y3           0.00000  -0.15926   0.49834
           Z3           0.00000   0.00000   0.00000   1.00000
           X4           0.00000   0.00000   0.00000   0.00000   0.65975
           Y4           0.00000   0.00000   0.00000   0.00000  -0.11343
           Z4           0.00000   0.00000   0.00000   0.00000   0.00000
           X5           0.00000   0.00000   0.00000   0.00000  -0.55473
           Y5           0.00000   0.00000   0.00000   0.00000  -0.04583
           Z5           0.00000   0.00000   0.00000   0.00000   0.00000
           X6           0.00000   0.00000   0.00000   0.00000  -0.10501
           Y6           0.00000   0.00000   0.00000   0.00000   0.15926
           Z6           0.00000   0.00000   0.00000   0.00000   0.00000
                          Y4        Z4        X5        Y5        Z5
           Y4           0.57941
           Z4           0.00000   1.00000
           X5           0.00000   0.00000   0.55473
           Y5          -0.06484   0.00000   0.00000   0.04862
           Z5           0.00000   0.00000   0.00000   0.00000   1.00000
           X6           0.11343   0.00000   0.00000   0.04583   0.00000
           Y6          -0.51457   0.00000   0.00000   0.01623   0.00000
           Z6           0.00000   0.00000   0.00000   0.00000   0.00000
                          X6        Y6        Z6
           X6           0.10501
           Y6          -0.15926   0.49834
           Z6           0.00000   0.00000   1.00000
 ITU=  0
     Eigenvalues ---    0.00000   0.00000   0.00000   0.04862   0.16389
     Eigenvalues ---    0.55473   0.98732   1.00000   1.00000   1.00000
     Eigenvalues ---    1.00000   1.29464
 Eigenvalue     1 is  -3.33D-16 should be greater than     0.000000 Eigenvector:
                          X5        X4        Y5        X6        Y6
   1                    0.62215   0.62215   0.37070   0.26507  -0.13456
                          Y4        Z4        Z5        Y1        Y2
   1                   -0.00811   0.00000   0.00000   0.00000   0.00000
 Eigenvalue     2 is   0.00D+00 Eigenvector:
                          Y6        Y4        X6        Y5        X4
   1                    0.70883   0.59574   0.26659   0.25692  -0.05279
                          X5        Z4        Z5        Y2        X1
   1                   -0.05279   0.00000   0.00000   0.00000   0.00000
 Eigenvalue     3 is   4.44D-16 Eigenvector:
                          Y5        X6        Y6        Y4        X4
   1                    0.72033  -0.66771  -0.10667   0.10030  -0.08324
                          X5        Z4        Z5        Y2        X2
   1                   -0.08324   0.00000   0.00000   0.00000   0.00000
 Quadratic step=4.423D+01 exceeds max=3.000D-01 adjusted using Lamda=-1.472D-02.
 Angle between NR and scaled steps=   6.04 degrees.
 Angle between quadratic step and forces=  69.70 degrees.
 Linear search not attempted -- first point.
 TrRot= -0.001730 -0.046280  0.000000 -0.000898  0.000000 -0.000898
 Variable       Old X    -DE/DX   Delta X   Delta X   Delta X     New X
                                 (Linear)    (Quad)   (Total)
    X1       -0.69675   0.00209   0.00000   0.00000  -0.00918  -0.70593
    Y1       -4.14652   0.00187   0.00000   0.00000  -0.04502  -4.19154
    Z1        0.00000   0.00000   0.00000   0.00000   0.00000   0.00000
    X2        1.11739  -0.00682   0.00000   0.00000  -0.00918   1.10821
    Y2       -4.14652   0.00367   0.00000   0.00000  -0.04828  -4.19480
    Z2        0.00000   0.00000   0.00000   0.00000   0.00000   0.00000
    X3       -1.30232   0.00479   0.00000   0.02644   0.02032  -1.28200
    Y3       -2.43644  -0.00946   0.00000  -0.01022  -0.05421  -2.49065
    Z3        0.00000   0.00000   0.00000   0.00000   0.00000   0.00000
    X4       -4.43542   0.00431   0.00000   0.06307   0.06257  -4.37285
    Y4        0.64577  -0.00135   0.00000   0.03705  -0.00138   0.64439
    Z4        0.00000   0.00000   0.00000   0.00000   0.00000   0.00000
    X5       -2.62128  -0.00338   0.00000   0.05549   0.05539  -2.56590
    Y5        0.64577   0.00484   0.00000   0.25520   0.21353   0.85930
    Z5        0.00000   0.00000   0.00000   0.00000   0.00000   0.00000
    X6       -5.04099  -0.00099   0.00000  -0.12238  -0.11992  -5.16091
    Y6        2.35585   0.00043   0.00000  -0.02763  -0.06464   2.29121
    Z6        0.00000   0.00000   0.00000   0.00000   0.00000   0.00000
         Item               Value     Threshold  Converged?
 Maximum Force            0.009456     0.000450     NO 
 RMS     Force            0.003626     0.000300     NO 
 Maximum Displacement     0.213528     0.001800     NO 
 RMS     Displacement     0.066256     0.001200     NO 
 Predicted change in Energy=-1.468422D-03
 GradGradGradGradGradGradGradGradGradGradGradGradGradGradGradGradGradGrad

 Leave Link  103 at Sat Mar 21 09:45:39 2015, MaxMem=    33554432 cpu:         0.0
 (Enter /opt/g09_D01_em64t/g09/l9999.exe)

 Test job not archived.
 1\1\GINC-EAM\Force\RPM6\ZDO\H4O2\DULIKAI\21-Mar-2015\0\\#P force Test 
 IOp(2/15=1,5/32=2,5/38=1) PM6\\ch2nh2 iop(9/40=20) Point 1 -- low leve
 l on model system.\\0,1\O,-0.36870503,-2.19424457,0.\H,0.59129497,-2.1
 9424457,0.\H,-0.68915962,-1.28930874,0.\O,-2.34712227,0.34172661,0.\H,
 -1.38712227,0.34172661,0.\H,-2.66757686,1.24666244,0.\\Version=EM64L-G
 09RevD.01\HF=-0.0817829\RMSD=5.830e-09\RMSF=3.626e-03\Dipole=0.9672494
 ,1.3664023,0.\PG=CS [SG(H4O2)]\\@


 ... A MOLECULAR SYSTEM ... (PASSES) ... FROM ONE STATE OF EQUILIBRIUM 
 TO ANOTHER ... BY MEANS OF ALL POSSIBLE INTERMEDIATE PATHS, 
 BUT THE PATH MOST ECONOMICAL OF ENERGY WILL BE THE MORE OFTEN TRAVELED.

                      -- HENRY EYRING, 1945
 Job cpu time:       0 days  0 hours  0 minutes  0.5 seconds.
 File lengths (MBytes):  RWF=      5 Int=      0 D2E=      0 Chk=      2 Scr=      1
 Normal termination of Gaussian 09 at Sat Mar 21 09:45:39 2015.
