 Entering Gaussian System, Link 0=g09
 Input=lowreal.gjf
 Output=lowreal.log
 Initial command:
 /opt/g09_D01_em64t/g09/l1.exe "/tmp/Gau-22954.inp" -scrdir="/tmp/"
 Entering Link 1 = /opt/g09_D01_em64t/g09/l1.exe PID=     22955.
  
 Copyright (c) 1988,1990,1992,1993,1995,1998,2003,2009,2013,
            Gaussian, Inc.  All Rights Reserved.
  
 This is part of the Gaussian(R) 09 program.  It is based on
 the Gaussian(R) 03 system (copyright 2003, Gaussian, Inc.),
 the Gaussian(R) 98 system (copyright 1998, Gaussian, Inc.),
 the Gaussian(R) 94 system (copyright 1995, Gaussian, Inc.),
 the Gaussian 92(TM) system (copyright 1992, Gaussian, Inc.),
 the Gaussian 90(TM) system (copyright 1990, Gaussian, Inc.),
 the Gaussian 88(TM) system (copyright 1988, Gaussian, Inc.),
 the Gaussian 86(TM) system (copyright 1986, Carnegie Mellon
 University), and the Gaussian 82(TM) system (copyright 1983,
 Carnegie Mellon University). Gaussian is a federally registered
 trademark of Gaussian, Inc.
  
 This software contains proprietary and confidential information,
 including trade secrets, belonging to Gaussian, Inc.
  
 This software is provided under written license and may be
 used, copied, transmitted, or stored only in accord with that
 written license.
  
 The following legend is applicable only to US Government
 contracts under FAR:
  
                    RESTRICTED RIGHTS LEGEND
  
 Use, reproduction and disclosure by the US Government is
 subject to restrictions as set forth in subparagraphs (a)
 and (c) of the Commercial Computer Software - Restricted
 Rights clause in FAR 52.227-19.
  
 Gaussian, Inc.
 340 Quinnipiac St., Bldg. 40, Wallingford CT 06492
  
  
 ---------------------------------------------------------------
 Warning -- This program may not be used in any manner that
 competes with the business of Gaussian, Inc. or will provide
 assistance to any competitor of Gaussian, Inc.  The licensee
 of this program is prohibited from giving any competitor of
 Gaussian, Inc. access to this program.  By using this program,
 the user acknowledges that Gaussian, Inc. is engaged in the
 business of creating and licensing software in the field of
 computational chemistry and represents and warrants to the
 licensee that it is not a competitor of Gaussian, Inc. and that
 it will not use this program in any manner prohibited above.
 ---------------------------------------------------------------
  

 Cite this work as:
 Gaussian 09, Revision D.01,
 M. J. Frisch, G. W. Trucks, H. B. Schlegel, G. E. Scuseria, 
 M. A. Robb, J. R. Cheeseman, G. Scalmani, V. Barone, B. Mennucci, 
 G. A. Petersson, H. Nakatsuji, M. Caricato, X. Li, H. P. Hratchian, 
 A. F. Izmaylov, J. Bloino, G. Zheng, J. L. Sonnenberg, M. Hada, 
 M. Ehara, K. Toyota, R. Fukuda, J. Hasegawa, M. Ishida, T. Nakajima, 
 Y. Honda, O. Kitao, H. Nakai, T. Vreven, J. A. Montgomery, Jr., 
 J. E. Peralta, F. Ogliaro, M. Bearpark, J. J. Heyd, E. Brothers, 
 K. N. Kudin, V. N. Staroverov, T. Keith, R. Kobayashi, J. Normand, 
 K. Raghavachari, A. Rendell, J. C. Burant, S. S. Iyengar, J. Tomasi, 
 M. Cossi, N. Rega, J. M. Millam, M. Klene, J. E. Knox, J. B. Cross, 
 V. Bakken, C. Adamo, J. Jaramillo, R. Gomperts, R. E. Stratmann, 
 O. Yazyev, A. J. Austin, R. Cammi, C. Pomelli, J. W. Ochterski, 
 R. L. Martin, K. Morokuma, V. G. Zakrzewski, G. A. Voth, 
 P. Salvador, J. J. Dannenberg, S. Dapprich, A. D. Daniels, 
 O. Farkas, J. B. Foresman, J. V. Ortiz, J. Cioslowski, 
 and D. J. Fox, Gaussian, Inc., Wallingford CT, 2013.
 
 ******************************************
 Gaussian 09:  EM64L-G09RevD.01 24-Apr-2013
                21-Mar-2015 
 ******************************************
 -------------------------------------------
 #P force Test IOp(2/15=1,5/32=2,5/38=1) PM6
 -------------------------------------------
 1/10=7,30=1,38=1/1,3;
 2/12=2,15=1,17=6,18=5,40=1/2;
 3/5=2,16=1,25=1,41=3900000,71=1/1,2,3;
 4/35=1/1;
 5/5=2,32=2,35=1,38=1/2;
 6/7=2,8=2,9=2,10=2,28=1/1;
 7/29=1/1,2,3,16;
 1/10=7,30=1/3;
 99//99;
 Leave Link    1 at Sat Mar 21 09:45:34 2015, MaxMem=           0 cpu:         0.0
 (Enter /opt/g09_D01_em64t/g09/l101.exe)
 --------------------------------------------------------
 ch2nh2 iop(9/40=20) Point 3 -- low level on real system.
 --------------------------------------------------------
 Symbolic Z-matrix:
 Charge =  0 Multiplicity = 1
 O-O_3--0.834000      -0.36871  -2.19424   0. 
 H-H_-0.417000         0.59129  -2.19424   0. 
 H-H_-0.417000        -0.68916  -1.28931   0. 
 O-O_3--0.834000      -2.34712   0.34173   0. 
 H-H_-0.417000        -1.38712   0.34173   0. 
 H-H_-0.417000        -2.66758   1.24666   0. 
 
 NAtoms=      6 NQM=        6 NQMF=       0 NMMI=      0 NMMIF=      0
                NMic=       0 NMicF=      0.
                    Isotopes and Nuclear Properties:
 (Nuclear quadrupole moments (NQMom) in fm**2, nuclear magnetic moments (NMagM)
  in nuclear magnetons)

  Atom         1           2           3           4           5           6
 IAtWgt=          16           1           1          16           1           1
 AtmWgt=  15.9949146   1.0078250   1.0078250  15.9949146   1.0078250   1.0078250
 NucSpn=           0           1           1           0           1           1
 AtZEff=   0.0000000   0.0000000   0.0000000   0.0000000   0.0000000   0.0000000
 NQMom=    0.0000000   0.0000000   0.0000000   0.0000000   0.0000000   0.0000000
 NMagM=    0.0000000   2.7928460   2.7928460   0.0000000   2.7928460   2.7928460
 AtZNuc=   8.0000000   1.0000000   1.0000000   8.0000000   1.0000000   1.0000000
 MM Charge=              0.0000 electrons
 MM Dipole moment (Debye):
    X=              2.5619    Y=              3.6251    Z=              0.0000  Tot=              4.4390
 MM Quadrupole moment (Debye-Ang):
   XX=             -2.8546   YY=             -3.4350   ZZ=              0.0000
   XY=             -8.4572   XZ=              0.0000   YZ=              0.0000
 MM Traceless Quadrupole moment (Debye-Ang):
   XX=             -0.7581   YY=             -1.3385   ZZ=              2.0965
   XY=             -8.4572   XZ=              0.0000   YZ=              0.0000
 MM Octapole moment (Debye-Ang**2):
  XXX=              8.3899  YYY=             20.6684  ZZZ=              0.0000  XYY=              2.9885
  XXY=              9.9759  XXZ=              0.0000  XZZ=              0.0000  YZZ=              0.0000
  YYZ=              0.0000  XYZ=              0.0000
 MM Hexadecapole moment (Debye-Ang**3):
 XXXX=            -12.1133 YYYY=            -36.0856 ZZZZ=              0.0000 XXXY=            -32.0291
 XXXZ=              0.0000 YYYX=            -35.2452 YYYZ=              0.0000 ZZZX=              0.0000
 ZZZY=              0.0000 XXYY=             22.3553 XXZZ=              0.0000 YYZZ=              0.0000
 XXYZ=              0.0000 YYXZ=              0.0000 ZZXY=              0.0000
 Leave Link  101 at Sat Mar 21 09:45:34 2015, MaxMem=    33554432 cpu:         0.1
 (Enter /opt/g09_D01_em64t/g09/l103.exe)

 GradGradGradGradGradGradGradGradGradGradGradGradGradGradGradGradGradGrad
 Berny optimization.
 Initialization pass.
 Trust Radius=3.00D-01 FncErr=1.00D-07 GrdErr=1.00D-07
 Number of steps in this run=      2 maximum allowed number of steps=      2.
 GradGradGradGradGradGradGradGradGradGradGradGradGradGradGradGradGradGrad

 Leave Link  103 at Sat Mar 21 09:45:34 2015, MaxMem=    33554432 cpu:         0.0
 (Enter /opt/g09_D01_em64t/g09/l202.exe)
                          Input orientation:                          
 ---------------------------------------------------------------------
 Center     Atomic      Atomic             Coordinates (Angstroms)
 Number     Number       Type             X           Y           Z
 ---------------------------------------------------------------------
      1          8    10081003       -0.368705   -2.194245    0.000000
      2          1    10011000        0.591295   -2.194245    0.000000
      3          1    10011000       -0.689160   -1.289309    0.000000
      4          8    10081003       -2.347122    0.341727    0.000000
      5          1    10011000       -1.387122    0.341727    0.000000
      6          1    10011000       -2.667577    1.246662    0.000000
 ---------------------------------------------------------------------
                    Distance matrix (angstroms):
                    1          2          3          4          5
     1  O    0.000000
     2  H    0.960000   0.000000
     3  H    0.960000   1.567952   0.000000
     4  O    3.216409   3.881423   2.325751   0.000000
     5  H    2.732823   3.216409   1.774099   0.960000   0.000000
     6  H    4.138194   4.739207   3.216409   0.960000   1.567952
                    6
     6  H    0.000000
 Symmetry turned off by external request.
 Stoichiometry    H4O2
 Framework group  CS[SG(H4O2)]
 Deg. of freedom     9
 Full point group                 CS      NOp   2
 Rotational constants (GHZ):    416.7917648      5.2904637      5.2241519
 Leave Link  202 at Sat Mar 21 09:45:34 2015, MaxMem=    33554432 cpu:         0.0
 (Enter /opt/g09_D01_em64t/g09/l301.exe)
 Standard basis: VSTO-6G (5D, 7F)
 Ernie: Thresh=  0.10000D-02 Tol=  0.10000D-05 Strict=F.
  NNHCO=     0 NNPyr=     0 NCTC=     0               EPep=         0.000000000
    EC=        19.127277979  ECS=         1.040723482   EG=         0.004477494
   EHC=         0.001275028  EAt=       -22.756735606  AtH=         0.521945909
 EPDDG=         0.000000000  ECC=        20.173753983 EAtT=        23.278681515
    12 basis functions,    72 primitive gaussians,    12 cartesian basis functions
     8 alpha electrons        8 beta electrons
       nuclear repulsion energy        43.4524354984 Hartrees.
 IExCor=    0 DFT=F Ex=HF Corr=None ExCW=0 ScaHFX=  1.000000
 ScaDFX=  1.000000  1.000000  1.000000  1.000000 ScalE2=  1.000000  1.000000
 IRadAn=      0 IRanWt=     -1 IRanGd=            0 ICorTp=0 IEmpDi=  4
 Integral buffers will be    131072 words long.
 Regular integral format.
 Two-electron integral symmetry is turned off.
 Leave Link  301 at Sat Mar 21 09:45:34 2015, MaxMem=    33554432 cpu:         0.0
 (Enter /opt/g09_D01_em64t/g09/l302.exe)
 Do NDO integrals.
 NPDir=0 NMtPBC=     1 NCelOv=     1 NCel=       1 NClECP=     1 NCelD=      1
         NCelK=      1 NCelE2=     1 NClLst=     1 CellRange=     0.0.
 One-electron integrals computed using PRISM.
 NBasis=    12 RedAO= F EigKep=  0.00D+00  NBF=    12
 NBsUse=    12 1.00D-04 EigRej=  0.00D+00 NBFU=    12
 Leave Link  302 at Sat Mar 21 09:45:35 2015, MaxMem=    33554432 cpu:         0.0
 (Enter /opt/g09_D01_em64t/g09/l303.exe)
 DipDrv:  MaxL=1.
 Leave Link  303 at Sat Mar 21 09:45:35 2015, MaxMem=    33554432 cpu:         0.0
 (Enter /opt/g09_D01_em64t/g09/l401.exe)
 Simple Huckel Guess.
 JPrj=0 DoOrth=F DoCkMO=F.
 Leave Link  401 at Sat Mar 21 09:45:35 2015, MaxMem=    33554432 cpu:         0.0
 (Enter /opt/g09_D01_em64t/g09/l502.exe)
 Closed shell SCF:
 Using DIIS extrapolation, IDIIS=  1040.
 Overlap will be assumed to be unity.
 Two-electron integral symmetry not used.
 Keep J ints in memory in canonical form, NReq=884401.
 IVT=       79028 IEndB=       79028 NGot=    33554432 MDV=    33475105
 LenX=    33475105 LenY=    33474223
 Requested convergence on RMS density matrix=1.00D-08 within 128 cycles.
 Requested convergence on MAX density matrix=1.00D-06.
 Requested convergence on             energy=1.00D-06.
 No special actions if energy rises.
 FoFCou: FMM=F IPFlag=           0 FMFlag=           0 FMFlg1=           0
         NFxFlg=           0 DoJE=F BraDBF=F KetDBF=F FulRan=T
         wScrn=  0.000000 ICntrl=     600 IOpCl=  2 I1Cent=           0 NGrid=           0
         NMat0=    1 NMatS0=     24 NMatT0=    0 NMatD0=    1 NMtDS0=    0 NMtDT0=    0
 Symmetry not used in FoFCou.

 Cycle   1  Pass 1  IDiag  1:
 E=-0.234850077108391E-01
 DIIS: error= 5.00D-02 at cycle   1 NSaved=   1.
 NSaved= 1 IEnMin= 1 EnMin=-0.234850077108391E-01 IErMin= 1 ErrMin= 5.00D-02
 ErrMax= 5.00D-02  0.00D+00 EMaxC= 1.00D-01 BMatC= 4.58D-02 BMatP= 4.58D-02
 IDIUse=3 WtCom= 5.00D-01 WtEn= 5.00D-01
 Coeff-Com:  0.100D+01
 Coeff-En:   0.100D+01
 Coeff:      0.100D+01
 GapD=    2.000 DampG=2.000 DampE=0.500 DampFc=1.0000 IDamp=-1.
 RMSDP=2.47D-02 MaxDP=1.24D-01              OVMax= 0.00D+00

 Cycle   2  Pass 1  IDiag  1:
 E=-0.140436363900847     Delta-E=       -0.116951356190 Rises=F Damp=F
 DIIS: error= 1.47D-02 at cycle   2 NSaved=   2.
 NSaved= 2 IEnMin= 2 EnMin=-0.140436363900847     IErMin= 2 ErrMin= 1.47D-02
 ErrMax= 1.47D-02  0.00D+00 EMaxC= 1.00D-01 BMatC= 5.49D-03 BMatP= 4.58D-02
 IDIUse=3 WtCom= 8.53D-01 WtEn= 1.47D-01
 Coeff-Com: -0.346D+00 0.135D+01
 Coeff-En:   0.000D+00 0.100D+01
 Coeff:     -0.295D+00 0.129D+01
 RMSDP=1.42D-02 MaxDP=5.02D-02 DE=-1.17D-01 OVMax= 0.00D+00

 Cycle   3  Pass 1  IDiag  3:
 E=-0.164249290407938     Delta-E=       -0.023812926507 Rises=F Damp=F
 DIIS: error= 4.99D-03 at cycle   3 NSaved=   3.
 NSaved= 3 IEnMin= 3 EnMin=-0.164249290407938     IErMin= 3 ErrMin= 4.99D-03
 ErrMax= 4.99D-03  0.00D+00 EMaxC= 1.00D-01 BMatC= 8.27D-04 BMatP= 5.49D-03
 IDIUse=3 WtCom= 9.50D-01 WtEn= 4.99D-02
 Coeff-Com:  0.264D+00-0.138D+01 0.211D+01
 Coeff-En:   0.000D+00 0.000D+00 0.100D+01
 Coeff:      0.251D+00-0.131D+01 0.206D+01
 Gap=     0.550 Goal=   None    Shift=    0.000
 RMSDP=1.07D-02 MaxDP=3.47D-02 DE=-2.38D-02 OVMax= 5.64D-02

 Cycle   4  Pass 1  IDiag  3:
 E=-0.169683840368144     Delta-E=       -0.005434549960 Rises=F Damp=F
 DIIS: error= 5.03D-04 at cycle   4 NSaved=   4.
 NSaved= 4 IEnMin= 4 EnMin=-0.169683840368144     IErMin= 4 ErrMin= 5.03D-04
 ErrMax= 5.03D-04  0.00D+00 EMaxC= 1.00D-01 BMatC= 2.66D-06 BMatP= 8.27D-04
 IDIUse=3 WtCom= 9.95D-01 WtEn= 5.03D-03
 Coeff-Com: -0.379D-01 0.226D+00-0.407D+00 0.122D+01
 Coeff-En:   0.000D+00 0.000D+00 0.000D+00 0.100D+01
 Coeff:     -0.377D-01 0.225D+00-0.405D+00 0.122D+01
 Gap=     0.551 Goal=   None    Shift=    0.000
 RMSDP=4.77D-04 MaxDP=2.12D-03 DE=-5.43D-03 OVMax= 2.45D-03

 Cycle   5  Pass 1  IDiag  3:
 E=-0.169696821824608     Delta-E=       -0.000012981456 Rises=F Damp=F
 DIIS: error= 4.79D-05 at cycle   5 NSaved=   5.
 NSaved= 5 IEnMin= 5 EnMin=-0.169696821824608     IErMin= 5 ErrMin= 4.79D-05
 ErrMax= 4.79D-05  0.00D+00 EMaxC= 1.00D-01 BMatC= 3.77D-08 BMatP= 2.66D-06
 IDIUse=1 WtCom= 1.00D+00 WtEn= 0.00D+00
 Coeff-Com:  0.587D-02-0.406D-01 0.793D-01-0.370D+00 0.133D+01
 Coeff:      0.587D-02-0.406D-01 0.793D-01-0.370D+00 0.133D+01
 Gap=     0.551 Goal=   None    Shift=    0.000
 RMSDP=5.18D-05 MaxDP=2.45D-04 DE=-1.30D-05 OVMax= 2.19D-04

 Cycle   6  Pass 1  IDiag  3:
 E=-0.169696975567575     Delta-E=       -0.000000153743 Rises=F Damp=F
 DIIS: error= 5.82D-06 at cycle   6 NSaved=   6.
 NSaved= 6 IEnMin= 6 EnMin=-0.169696975567575     IErMin= 6 ErrMin= 5.82D-06
 ErrMax= 5.82D-06  0.00D+00 EMaxC= 1.00D-01 BMatC= 5.79D-10 BMatP= 3.77D-08
 IDIUse=1 WtCom= 1.00D+00 WtEn= 0.00D+00
 Coeff-Com: -0.818D-03 0.658D-02-0.128D-01 0.690D-01-0.304D+00 0.124D+01
 Coeff:     -0.818D-03 0.658D-02-0.128D-01 0.690D-01-0.304D+00 0.124D+01
 Gap=     0.551 Goal=   None    Shift=    0.000
 RMSDP=7.34D-06 MaxDP=2.68D-05 DE=-1.54D-07 OVMax= 3.99D-05

 Cycle   7  Pass 1  IDiag  3:
 E=-0.169696977764446     Delta-E=       -0.000000002197 Rises=F Damp=F
 DIIS: error= 1.10D-06 at cycle   7 NSaved=   7.
 NSaved= 7 IEnMin= 7 EnMin=-0.169696977764446     IErMin= 7 ErrMin= 1.10D-06
 ErrMax= 1.10D-06  0.00D+00 EMaxC= 1.00D-01 BMatC= 2.68D-11 BMatP= 5.79D-10
 IDIUse=1 WtCom= 1.00D+00 WtEn= 0.00D+00
 Coeff-Com:  0.333D-03-0.257D-02 0.466D-02-0.226D-01 0.107D+00-0.462D+00
 Coeff-Com:  0.138D+01
 Coeff:      0.333D-03-0.257D-02 0.466D-02-0.226D-01 0.107D+00-0.462D+00
 Coeff:      0.138D+01
 Gap=     0.551 Goal=   None    Shift=    0.000
 RMSDP=1.97D-06 MaxDP=8.35D-06 DE=-2.20D-09 OVMax= 1.03D-05

 Cycle   8  Pass 1  IDiag  3:
 E=-0.169696977867872     Delta-E=       -0.000000000103 Rises=F Damp=F
 DIIS: error= 4.29D-07 at cycle   8 NSaved=   8.
 NSaved= 8 IEnMin= 8 EnMin=-0.169696977867872     IErMin= 8 ErrMin= 4.29D-07
 ErrMax= 4.29D-07  0.00D+00 EMaxC= 1.00D-01 BMatC= 3.73D-12 BMatP= 2.68D-11
 IDIUse=1 WtCom= 1.00D+00 WtEn= 0.00D+00
 Coeff-Com: -0.629D-04 0.460D-03-0.713D-03 0.272D-02-0.160D-01 0.606D-01
 Coeff-Com: -0.311D+00 0.126D+01
 Coeff:     -0.629D-04 0.460D-03-0.713D-03 0.272D-02-0.160D-01 0.606D-01
 Coeff:     -0.311D+00 0.126D+01
 Gap=     0.551 Goal=   None    Shift=    0.000
 RMSDP=7.03D-07 MaxDP=2.48D-06 DE=-1.03D-10 OVMax= 4.24D-06

 Cycle   9  Pass 1  IDiag  3:
 E=-0.169696977885664     Delta-E=       -0.000000000018 Rises=F Damp=F
 DIIS: error= 9.64D-08 at cycle   9 NSaved=   9.
 NSaved= 9 IEnMin= 9 EnMin=-0.169696977885664     IErMin= 9 ErrMin= 9.64D-08
 ErrMax= 9.64D-08  0.00D+00 EMaxC= 1.00D-01 BMatC= 2.05D-13 BMatP= 3.73D-12
 IDIUse=1 WtCom= 1.00D+00 WtEn= 0.00D+00
 Coeff-Com:  0.133D-04-0.959D-04 0.932D-04-0.699D-04 0.274D-02-0.627D-02
 Coeff-Com:  0.535D-01-0.698D+00 0.165D+01
 Coeff:      0.133D-04-0.959D-04 0.932D-04-0.699D-04 0.274D-02-0.627D-02
 Coeff:      0.535D-01-0.698D+00 0.165D+01
 Gap=     0.551 Goal=   None    Shift=    0.000
 RMSDP=1.76D-07 MaxDP=7.48D-07 DE=-1.78D-11 OVMax= 1.12D-06

 Cycle  10  Pass 1  IDiag  3:
 E=-0.169696977886723     Delta-E=       -0.000000000001 Rises=F Damp=F
 DIIS: error= 1.90D-08 at cycle  10 NSaved=  10.
 NSaved=10 IEnMin=10 EnMin=-0.169696977886723     IErMin=10 ErrMin= 1.90D-08
 ErrMax= 1.90D-08  0.00D+00 EMaxC= 1.00D-01 BMatC= 1.18D-14 BMatP= 2.05D-13
 IDIUse=1 WtCom= 1.00D+00 WtEn= 0.00D+00
 Coeff-Com: -0.315D-06 0.117D-05 0.173D-04-0.168D-03 0.194D-03-0.194D-02
 Coeff-Com:  0.609D-02 0.114D+00-0.396D+00 0.128D+01
 Coeff:     -0.315D-06 0.117D-05 0.173D-04-0.168D-03 0.194D-03-0.194D-02
 Coeff:      0.609D-02 0.114D+00-0.396D+00 0.128D+01
 Gap=     0.551 Goal=   None    Shift=    0.000
 RMSDP=3.73D-08 MaxDP=1.22D-07 DE=-1.06D-12 OVMax= 2.10D-07

 Cycle  11  Pass 1  IDiag  3:
 E=-0.169696977886723     Delta-E=        0.000000000000 Rises=F Damp=F
 DIIS: error= 2.32D-09 at cycle  11 NSaved=  11.
 NSaved=11 IEnMin=10 EnMin=-0.169696977886723     IErMin=11 ErrMin= 2.32D-09
 ErrMax= 2.32D-09  0.00D+00 EMaxC= 1.00D-01 BMatC= 1.45D-16 BMatP= 1.18D-14
 IDIUse=1 WtCom= 1.00D+00 WtEn= 0.00D+00
 Coeff-Com: -0.528D-06 0.451D-05-0.140D-04 0.927D-04-0.257D-03 0.140D-02
 Coeff-Com: -0.548D-02-0.241D-01 0.113D+00-0.462D+00 0.138D+01
 Coeff:     -0.528D-06 0.451D-05-0.140D-04 0.927D-04-0.257D-03 0.140D-02
 Coeff:     -0.548D-02-0.241D-01 0.113D+00-0.462D+00 0.138D+01
 Gap=     0.551 Goal=   None    Shift=    0.000
 RMSDP=3.67D-09 MaxDP=1.36D-08 DE= 0.00D+00 OVMax= 1.68D-08

 Cycle  12  Pass 2  IDiag  1:
 SCF Done:  E(RPM6) = -0.169696977887     A.U. after   12 cycles
            NFock= 11  Conv=0.37D-08     -V/T= 0.9774
 KE=-7.518769751455D+00 PE=-6.861372511996D+01 EE= 3.251036239510D+01
 Leave Link  502 at Sat Mar 21 09:45:35 2015, MaxMem=    33554432 cpu:         0.0
 (Enter /opt/g09_D01_em64t/g09/l601.exe)
 Copying SCF densities to generalized density rwf, IOpCl= 0 IROHF=0.

 **********************************************************************

            Population analysis using the SCF density.

 **********************************************************************

 Alpha  occ. eigenvalues --   -1.12645  -1.09991  -0.72508  -0.68336  -0.52717
 Alpha  occ. eigenvalues --   -0.51306  -0.44687  -0.43398
 Alpha virt. eigenvalues --    0.11737   0.15436   0.20694   0.22433
          Condensed to atoms (all electrons):
               1          2          3          4          5          6
     1  O    6.617454   0.000000   0.000000   0.000000   0.000000   0.000000
     2  H    0.000000   0.690942   0.000000   0.000000   0.000000   0.000000
     3  H    0.000000   0.000000   0.692729   0.000000   0.000000   0.000000
     4  O    0.000000   0.000000   0.000000   6.616429   0.000000   0.000000
     5  H    0.000000   0.000000   0.000000   0.000000   0.700344   0.000000
     6  H    0.000000   0.000000   0.000000   0.000000   0.000000   0.682101
 Mulliken charges:
               1
     1  O   -0.617454
     2  H    0.309058
     3  H    0.307271
     4  O   -0.616429
     5  H    0.299656
     6  H    0.317899
 Sum of Mulliken charges =   0.00000
 Mulliken charges with hydrogens summed into heavy atoms:
               1
     1  O   -0.001126
     4  O    0.001126
 Charge=              0.0000 electrons
 Dipole moment (field-independent basis, Debye):
    X=              2.2937    Y=              3.3756    Z=              0.0000  Tot=              4.0812
 N-N= 4.345243549843D+01 E-N=-6.861372512165D+01  KE=-7.518769751455D+00
 Leave Link  601 at Sat Mar 21 09:45:35 2015, MaxMem=    33554432 cpu:         0.0
 (Enter /opt/g09_D01_em64t/g09/l701.exe)
 Compute integral first derivatives.
 ... and contract with generalized density number  0.
 Leave Link  701 at Sat Mar 21 09:45:35 2015, MaxMem=    33554432 cpu:         0.0
 (Enter /opt/g09_D01_em64t/g09/l702.exe)
 L702 exits ... SP integral derivatives will be done elsewhere.
 Leave Link  702 at Sat Mar 21 09:45:35 2015, MaxMem=    33554432 cpu:         0.0
 (Enter /opt/g09_D01_em64t/g09/l703.exe)
 Compute integral first derivatives, UseDBF=F ICtDFT=           0.
 Integral derivatives from FoFJK, PRISM(SPDF).
 Calling FoFJK, ICntrl=      2127 FMM=F ISym2X=0 I1Cent= 0 IOpClX= 0 NMat=1 NMatS=1 NMatT=0.
 FoFJK:  IHMeth=40 ICntrl=    2127 DoSepK=F KAlg= 0 I1Cent=   0 FoldK=F
 IRaf=         0 NMat=   1 IRICut=       1 DoRegI=T DoRafI=F ISym2E= 0.
 FoFCou: FMM=F IPFlag=           0 FMFlag=      100000 FMFlg1=         800
         NFxFlg=           0 DoJE=F BraDBF=F KetDBF=F FulRan=T
         wScrn=  0.000000 ICntrl=    2127 IOpCl=  0 I1Cent=           0 NGrid=           0
         NMat0=    1 NMatS0=      1 NMatT0=    0 NMatD0=    1 NMtDS0=    0 NMtDT0=    0
 Symmetry not used in FoFCou.
 Leave Link  703 at Sat Mar 21 09:45:35 2015, MaxMem=    33554432 cpu:         0.0
 (Enter /opt/g09_D01_em64t/g09/l716.exe)
 Dipole        = 9.02403603D-01 1.32808062D+00 2.83033569D-17
 -------------------------------------------------------------------
 Center     Atomic                   Forces (Hartrees/Bohr)
 Number     Number              X              Y              Z
 -------------------------------------------------------------------
      1        8           0.002926683   -0.000092598    0.000000000
      2        1          -0.006746684    0.003704157    0.000000000
      3        1           0.003629821   -0.005268589    0.000000000
      4        8           0.001550522   -0.000180448    0.000000000
      5        1          -0.006810988    0.005718532    0.000000000
      6        1           0.005450646   -0.003881055    0.000000000
 -------------------------------------------------------------------
 Cartesian Forces:  Max     0.006810988 RMS     0.003613602
 Z-matrix is all fixed cartesians, so copy forces.
 Force constants in Cartesian coordinates: 
                1             2             3             4             5 
      1  0.659745D+00
      2 -0.113428D+00  0.579412D+00
      3  0.000000D+00  0.000000D+00  0.100000D+01
      4 -0.554734D+00  0.000000D+00  0.000000D+00  0.554734D+00
      5 -0.458275D-01 -0.648444D-01  0.000000D+00  0.000000D+00  0.486161D-01
      6  0.000000D+00  0.000000D+00  0.000000D+00  0.000000D+00  0.000000D+00
      7 -0.105011D+00  0.113428D+00  0.000000D+00  0.000000D+00  0.458275D-01
      8  0.159255D+00 -0.514567D+00  0.000000D+00  0.000000D+00  0.162284D-01
      9  0.000000D+00  0.000000D+00  0.000000D+00  0.000000D+00  0.000000D+00
     10  0.000000D+00  0.000000D+00  0.000000D+00  0.000000D+00  0.000000D+00
     11  0.000000D+00  0.000000D+00  0.000000D+00  0.000000D+00  0.000000D+00
     12  0.000000D+00  0.000000D+00  0.000000D+00  0.000000D+00  0.000000D+00
     13  0.000000D+00  0.000000D+00  0.000000D+00  0.000000D+00  0.000000D+00
     14  0.000000D+00  0.000000D+00  0.000000D+00  0.000000D+00  0.000000D+00
     15  0.000000D+00  0.000000D+00  0.000000D+00  0.000000D+00  0.000000D+00
     16  0.000000D+00  0.000000D+00  0.000000D+00  0.000000D+00  0.000000D+00
     17  0.000000D+00  0.000000D+00  0.000000D+00  0.000000D+00  0.000000D+00
     18  0.000000D+00  0.000000D+00  0.000000D+00  0.000000D+00  0.000000D+00
                6             7             8             9            10 
      6  0.100000D+01
      7  0.000000D+00  0.105011D+00
      8  0.000000D+00 -0.159255D+00  0.498339D+00
      9  0.000000D+00  0.000000D+00  0.000000D+00  0.100000D+01
     10  0.000000D+00  0.000000D+00  0.000000D+00  0.000000D+00  0.659745D+00
     11  0.000000D+00  0.000000D+00  0.000000D+00  0.000000D+00 -0.113428D+00
     12  0.000000D+00  0.000000D+00  0.000000D+00  0.000000D+00  0.000000D+00
     13  0.000000D+00  0.000000D+00  0.000000D+00  0.000000D+00 -0.554734D+00
     14  0.000000D+00  0.000000D+00  0.000000D+00  0.000000D+00 -0.458275D-01
     15  0.000000D+00  0.000000D+00  0.000000D+00  0.000000D+00  0.000000D+00
     16  0.000000D+00  0.000000D+00  0.000000D+00  0.000000D+00 -0.105011D+00
     17  0.000000D+00  0.000000D+00  0.000000D+00  0.000000D+00  0.159255D+00
     18  0.000000D+00  0.000000D+00  0.000000D+00  0.000000D+00  0.000000D+00
               11            12            13            14            15 
     11  0.579412D+00
     12  0.000000D+00  0.100000D+01
     13  0.000000D+00  0.000000D+00  0.554734D+00
     14 -0.648444D-01  0.000000D+00  0.000000D+00  0.486161D-01
     15  0.000000D+00  0.000000D+00  0.000000D+00  0.000000D+00  0.100000D+01
     16  0.113428D+00  0.000000D+00  0.000000D+00  0.458275D-01  0.000000D+00
     17 -0.514567D+00  0.000000D+00  0.000000D+00  0.162284D-01  0.000000D+00
     18  0.000000D+00  0.000000D+00  0.000000D+00  0.000000D+00  0.000000D+00
               16            17            18 
     16  0.105011D+00
     17 -0.159255D+00  0.498339D+00
     18  0.000000D+00  0.000000D+00  0.100000D+01
 Leave Link  716 at Sat Mar 21 09:45:35 2015, MaxMem=    33554432 cpu:         0.0
 (Enter /opt/g09_D01_em64t/g09/l103.exe)

 GradGradGradGradGradGradGradGradGradGradGradGradGradGradGradGradGradGrad
 Berny optimization.
 Search for a local minimum.
 Step number   1 out of a maximum of    2
 All quantities printed in internal units (Hartrees-Bohrs-Radians)
 Second derivative matrix not updated -- first step.
 The second derivative matrix:
                          X1        Y1        Z1        X2        Y2
           X1           0.65975
           Y1          -0.11343   0.57941
           Z1           0.00000   0.00000   1.00000
           X2          -0.55473   0.00000   0.00000   0.55473
           Y2          -0.04583  -0.06484   0.00000   0.00000   0.04862
           Z2           0.00000   0.00000   0.00000   0.00000   0.00000
           X3          -0.10501   0.11343   0.00000   0.00000   0.04583
           Y3           0.15926  -0.51457   0.00000   0.00000   0.01623
           Z3           0.00000   0.00000   0.00000   0.00000   0.00000
           X4           0.00000   0.00000   0.00000   0.00000   0.00000
           Y4           0.00000   0.00000   0.00000   0.00000   0.00000
           Z4           0.00000   0.00000   0.00000   0.00000   0.00000
           X5           0.00000   0.00000   0.00000   0.00000   0.00000
           Y5           0.00000   0.00000   0.00000   0.00000   0.00000
           Z5           0.00000   0.00000   0.00000   0.00000   0.00000
           X6           0.00000   0.00000   0.00000   0.00000   0.00000
           Y6           0.00000   0.00000   0.00000   0.00000   0.00000
           Z6           0.00000   0.00000   0.00000   0.00000   0.00000
                          Z2        X3        Y3        Z3        X4
           Z2           1.00000
           X3           0.00000   0.10501
           Y3           0.00000  -0.15926   0.49834
           Z3           0.00000   0.00000   0.00000   1.00000
           X4           0.00000   0.00000   0.00000   0.00000   0.65975
           Y4           0.00000   0.00000   0.00000   0.00000  -0.11343
           Z4           0.00000   0.00000   0.00000   0.00000   0.00000
           X5           0.00000   0.00000   0.00000   0.00000  -0.55473
           Y5           0.00000   0.00000   0.00000   0.00000  -0.04583
           Z5           0.00000   0.00000   0.00000   0.00000   0.00000
           X6           0.00000   0.00000   0.00000   0.00000  -0.10501
           Y6           0.00000   0.00000   0.00000   0.00000   0.15926
           Z6           0.00000   0.00000   0.00000   0.00000   0.00000
                          Y4        Z4        X5        Y5        Z5
           Y4           0.57941
           Z4           0.00000   1.00000
           X5           0.00000   0.00000   0.55473
           Y5          -0.06484   0.00000   0.00000   0.04862
           Z5           0.00000   0.00000   0.00000   0.00000   1.00000
           X6           0.11343   0.00000   0.00000   0.04583   0.00000
           Y6          -0.51457   0.00000   0.00000   0.01623   0.00000
           Z6           0.00000   0.00000   0.00000   0.00000   0.00000
                          X6        Y6        Z6
           X6           0.10501
           Y6          -0.15926   0.49834
           Z6           0.00000   0.00000   1.00000
 ITU=  0
     Eigenvalues ---    0.00000   0.00000   0.00000   0.15415   0.15571
     Eigenvalues ---    0.86595   0.87978   1.00000   1.00000   1.00000
     Eigenvalues ---    1.09960   1.28366
 Eigenvalue     1 is  -7.77D-16 should be greater than     0.000000 Eigenvector:
                          Y5        Y6        X3        X5        X4
   1                    0.45550  -0.39982  -0.39369   0.33680   0.33680
                          Y2        X6        Y4        X1        X2
   1                    0.31400  -0.26767  -0.18576  -0.14508  -0.14508
 Eigenvalue     2 is  -2.22D-16 should be greater than     0.000000 Eigenvector:
                          Y5        X6        Y2        Y1        Y3
   1                    0.60252  -0.45274  -0.35005  -0.26671  -0.23889
                          X3        Y4        X2        X1        Y6
   1                    0.23575   0.22225   0.15719   0.15719   0.09532
 Eigenvalue     3 is   2.22D-16 Eigenvector:
                          Y3        X3        Y2        Y6        Y1
   1                    0.50958   0.47036  -0.45167  -0.27770   0.26901
                          X1        X2        Y4        X6        X4
   1                   -0.20898  -0.20898  -0.19721  -0.11990   0.10739
 Quadratic step=2.604D+01 exceeds max=3.000D-01 adjusted using Lamda=-8.793D-03.
 Angle between NR and scaled steps=  12.81 degrees.
 Angle between quadratic step and forces=  69.63 degrees.
 Linear search not attempted -- first point.
 TrRot=  0.014815 -0.020083  0.000000 -0.001279  0.000000 -0.001279
 Variable       Old X    -DE/DX   Delta X   Delta X   Delta X     New X
                                 (Linear)    (Quad)   (Total)
    X1       -0.69675   0.00293   0.00000   0.03600   0.03998  -0.65677
    Y1       -4.14652  -0.00009   0.00000  -0.09002  -0.10840  -4.25492
    Z1        0.00000   0.00000   0.00000   0.00000   0.00000   0.00000
    X2        1.11739  -0.00675   0.00000   0.02342   0.02791   1.14530
    Y2       -4.14652   0.00370   0.00000   0.11044   0.08745  -4.05907
    Z2        0.00000   0.00000   0.00000   0.00000   0.00000   0.00000
    X3       -1.30232   0.00363   0.00000  -0.09415  -0.08593  -1.38826
    Y3       -2.43644  -0.00527   0.00000  -0.14590  -0.16240  -2.59884
    Z3        0.00000   0.00000   0.00000   0.00000   0.00000   0.00000
    X4       -4.43542   0.00155   0.00000   0.01302   0.02957  -4.40584
    Y4        0.64577  -0.00018   0.00000   0.02993   0.02115   0.66692
    Z4        0.00000   0.00000   0.00000   0.00000   0.00000   0.00000
    X5       -2.62128  -0.00681   0.00000   0.00053   0.01748  -2.60380
    Y5        0.64577   0.00572   0.00000   0.18556   0.17218   0.81795
    Z5        0.00000   0.00000   0.00000   0.00000   0.00000   0.00000
    X6       -5.04099   0.00545   0.00000  -0.04986  -0.02901  -5.07000
    Y6        2.35585  -0.00388   0.00000  -0.00290  -0.00998   2.34588
    Z6        0.00000   0.00000   0.00000   0.00000   0.00000   0.00000
         Item               Value     Threshold  Converged?
 Maximum Force            0.006811     0.000450     NO 
 RMS     Force            0.003614     0.000300     NO 
 Maximum Displacement     0.172177     0.001800     NO 
 RMS     Displacement     0.069820     0.001200     NO 
 Predicted change in Energy=-1.202849D-03
 GradGradGradGradGradGradGradGradGradGradGradGradGradGradGradGradGradGrad

 Leave Link  103 at Sat Mar 21 09:45:35 2015, MaxMem=    33554432 cpu:         0.0
 (Enter /opt/g09_D01_em64t/g09/l9999.exe)

 Test job not archived.
 1\1\GINC-EAM\Force\RPM6\ZDO\H4O2\DULIKAI\21-Mar-2015\0\\#P force Test 
 IOp(2/15=1,5/32=2,5/38=1) PM6\\ch2nh2 iop(9/40=20) Point 3 -- low leve
 l on real system.\\0,1\O,-0.36870503,-2.19424457,0.\H,0.59129497,-2.19
 424457,0.\H,-0.68915962,-1.28930874,0.\O,-2.34712227,0.34172661,0.\H,-
 1.38712227,0.34172661,0.\H,-2.66757686,1.24666244,0.\\Version=EM64L-G0
 9RevD.01\HF=-0.169697\RMSD=3.675e-09\RMSF=3.614e-03\Dipole=0.9024036,1
 .3280806,0.\PG=CS [SG(H4O2)]\\@


 THE WORLD OF CHEMICAL REACTIONS IS LIKE A STAGE,
 ON WHICH SCENE AFTER SCENE IS CEASELESSLY PLAYED.
 THE ACTORS ON IT ARE THE ELEMENTS.
   -- CLEMENS WINKLER   BER. 30,13(1897)
 (DISCOVERER OF GERMANIUM, FEB 6, 1886)
 Job cpu time:       0 days  0 hours  0 minutes  0.5 seconds.
 File lengths (MBytes):  RWF=      5 Int=      0 D2E=      0 Chk=      2 Scr=      1
 Normal termination of Gaussian 09 at Sat Mar 21 09:45:35 2015.
