 Entering Gaussian System, Link 0=g09
 Input=ch2nh2p.gjf
 Output=ch2nh2p.log
 Initial command:
 /opt/g09_D01_em64t/g09/l1.exe "/tmp/Gau-22456.inp" -scrdir="/tmp/"
 Entering Link 1 = /opt/g09_D01_em64t/g09/l1.exe PID=     22457.
  
 Copyright (c) 1988,1990,1992,1993,1995,1998,2003,2009,2013,
            Gaussian, Inc.  All Rights Reserved.
  
 This is part of the Gaussian(R) 09 program.  It is based on
 the Gaussian(R) 03 system (copyright 2003, Gaussian, Inc.),
 the Gaussian(R) 98 system (copyright 1998, Gaussian, Inc.),
 the Gaussian(R) 94 system (copyright 1995, Gaussian, Inc.),
 the Gaussian 92(TM) system (copyright 1992, Gaussian, Inc.),
 the Gaussian 90(TM) system (copyright 1990, Gaussian, Inc.),
 the Gaussian 88(TM) system (copyright 1988, Gaussian, Inc.),
 the Gaussian 86(TM) system (copyright 1986, Carnegie Mellon
 University), and the Gaussian 82(TM) system (copyright 1983,
 Carnegie Mellon University). Gaussian is a federally registered
 trademark of Gaussian, Inc.
  
 This software contains proprietary and confidential information,
 including trade secrets, belonging to Gaussian, Inc.
  
 This software is provided under written license and may be
 used, copied, transmitted, or stored only in accord with that
 written license.
  
 The following legend is applicable only to US Government
 contracts under FAR:
  
                    RESTRICTED RIGHTS LEGEND
  
 Use, reproduction and disclosure by the US Government is
 subject to restrictions as set forth in subparagraphs (a)
 and (c) of the Commercial Computer Software - Restricted
 Rights clause in FAR 52.227-19.
  
 Gaussian, Inc.
 340 Quinnipiac St., Bldg. 40, Wallingford CT 06492
  
  
 ---------------------------------------------------------------
 Warning -- This program may not be used in any manner that
 competes with the business of Gaussian, Inc. or will provide
 assistance to any competitor of Gaussian, Inc.  The licensee
 of this program is prohibited from giving any competitor of
 Gaussian, Inc. access to this program.  By using this program,
 the user acknowledges that Gaussian, Inc. is engaged in the
 business of creating and licensing software in the field of
 computational chemistry and represents and warrants to the
 licensee that it is not a competitor of Gaussian, Inc. and that
 it will not use this program in any manner prohibited above.
 ---------------------------------------------------------------
  

 Cite this work as:
 Gaussian 09, Revision D.01,
 M. J. Frisch, G. W. Trucks, H. B. Schlegel, G. E. Scuseria, 
 M. A. Robb, J. R. Cheeseman, G. Scalmani, V. Barone, B. Mennucci, 
 G. A. Petersson, H. Nakatsuji, M. Caricato, X. Li, H. P. Hratchian, 
 A. F. Izmaylov, J. Bloino, G. Zheng, J. L. Sonnenberg, M. Hada, 
 M. Ehara, K. Toyota, R. Fukuda, J. Hasegawa, M. Ishida, T. Nakajima, 
 Y. Honda, O. Kitao, H. Nakai, T. Vreven, J. A. Montgomery, Jr., 
 J. E. Peralta, F. Ogliaro, M. Bearpark, J. J. Heyd, E. Brothers, 
 K. N. Kudin, V. N. Staroverov, T. Keith, R. Kobayashi, J. Normand, 
 K. Raghavachari, A. Rendell, J. C. Burant, S. S. Iyengar, J. Tomasi, 
 M. Cossi, N. Rega, J. M. Millam, M. Klene, J. E. Knox, J. B. Cross, 
 V. Bakken, C. Adamo, J. Jaramillo, R. Gomperts, R. E. Stratmann, 
 O. Yazyev, A. J. Austin, R. Cammi, C. Pomelli, J. W. Ochterski, 
 R. L. Martin, K. Morokuma, V. G. Zakrzewski, G. A. Voth, 
 P. Salvador, J. J. Dannenberg, S. Dapprich, A. D. Daniels, 
 O. Farkas, J. B. Foresman, J. V. Ortiz, J. Cioslowski, 
 and D. J. Fox, Gaussian, Inc., Wallingford CT, 2013.
 
 ******************************************
 Gaussian 09:  EM64L-G09RevD.01 24-Apr-2013
                 2-Apr-2015 
 ******************************************
 %chk=ch2nh2p.chk
 ----------------------------------------------------
 # hf/6-31g* SCF=tight Test Pop=MK iop(6/33=2,6/42=6)
 ----------------------------------------------------
 1/38=1/1;
 2/12=2,17=6,18=5,40=1/2;
 3/5=1,6=6,7=1,11=9,16=1,25=1,30=1/1,2,3;
 4//1;
 5/5=2,32=2,38=5/2;
 6/7=2,8=2,9=2,10=2,15=8,20=1,28=1,33=2,42=6/1,2;
 99/5=1,9=1/99;
 -----
 title
 -----
 Symbolic Z-matrix:
 Charge =  1 Multiplicity = 1
 C                     0.        0.       -0.67489 
 H                     0.        0.94448  -1.21367 
 H                     0.       -0.94448  -1.21367 
 N                     0.        0.        0.59964 
 H                     0.        0.86746   1.1396 
 H                     0.       -0.86746   1.1396 
 
                          Input orientation:                          
 ---------------------------------------------------------------------
 Center     Atomic      Atomic             Coordinates (Angstroms)
 Number     Number       Type             X           Y           Z
 ---------------------------------------------------------------------
      1          6           0        0.000000    0.000000   -0.674887
      2          1           0        0.000000    0.944478   -1.213665
      3          1           0        0.000000   -0.944478   -1.213665
      4          7           0        0.000000    0.000000    0.599636
      5          1           0        0.000000    0.867464    1.139600
      6          1           0        0.000000   -0.867464    1.139600
 ---------------------------------------------------------------------
                    Distance matrix (angstroms):
                    1          2          3          4          5
     1  C    0.000000
     2  H    1.087346   0.000000
     3  H    1.087346   1.888956   0.000000
     4  N    1.274523   2.044529   2.044529   0.000000
     5  H    2.011183   2.354525   2.970015   1.021790   0.000000
     6  H    2.011183   2.970015   2.354525   1.021790   1.734928
                    6
     6  H    0.000000
 Stoichiometry    CH4N(1+)
 Framework group  C2V[C2(CN),SGV(H4)]
 Deg. of freedom     5
 Full point group                 C2V     NOp   4
 Largest Abelian subgroup         C2V     NOp   4
 Largest concise Abelian subgroup C2      NOp   2
                         Standard orientation:                         
 ---------------------------------------------------------------------
 Center     Atomic      Atomic             Coordinates (Angstroms)
 Number     Number       Type             X           Y           Z
 ---------------------------------------------------------------------
      1          6           0        0.000000    0.000000   -0.674887
      2          1           0        0.000000    0.944478   -1.213665
      3          1           0        0.000000   -0.944478   -1.213665
      4          7           0        0.000000    0.000000    0.599636
      5          1           0        0.000000    0.867464    1.139600
      6          1           0        0.000000   -0.867464    1.139600
 ---------------------------------------------------------------------
 Rotational constants (GHZ):    152.4612938     31.4160643     26.0485242
 Standard basis: 6-31G(d) (6D, 7F)
 There are    20 symmetry adapted cartesian basis functions of A1  symmetry.
 There are     2 symmetry adapted cartesian basis functions of A2  symmetry.
 There are     6 symmetry adapted cartesian basis functions of B1  symmetry.
 There are    10 symmetry adapted cartesian basis functions of B2  symmetry.
 There are    20 symmetry adapted basis functions of A1  symmetry.
 There are     2 symmetry adapted basis functions of A2  symmetry.
 There are     6 symmetry adapted basis functions of B1  symmetry.
 There are    10 symmetry adapted basis functions of B2  symmetry.
    38 basis functions,    72 primitive gaussians,    38 cartesian basis functions
     8 alpha electrons        8 beta electrons
       nuclear repulsion energy        38.7007353940 Hartrees.
 NAtoms=    6 NActive=    6 NUniq=    4 SFac= 2.25D+00 NAtFMM=   60 NAOKFM=F Big=F
 Integral buffers will be    131072 words long.
 Raffenetti 1 integral format.
 Two-electron integral symmetry is turned on.
 One-electron integrals computed using PRISM.
 NBasis=    38 RedAO= T EigKep=  1.65D-02  NBF=    20     2     6    10
 NBsUse=    38 1.00D-06 EigRej= -1.00D+00 NBFU=    20     2     6    10
 ExpMin= 1.61D-01 ExpMax= 4.17D+03 ExpMxC= 6.27D+02 IAcc=1 IRadAn=         1 AccDes= 0.00D+00
 Harris functional with IExCor=  205 and IRadAn=       1 diagonalized for initial guess.
 HarFok:  IExCor=  205 AccDes= 0.00D+00 IRadAn=         1 IDoV= 1 UseB2=F ITyADJ=14
 ICtDFT=  3500011 ScaDFX=  1.000000  1.000000  1.000000  1.000000
 FoFCou: FMM=F IPFlag=           0 FMFlag=      100000 FMFlg1=           0
         NFxFlg=           0 DoJE=T BraDBF=F KetDBF=T FulRan=T
         wScrn=  0.000000 ICntrl=     500 IOpCl=  0 I1Cent=   200000004 NGrid=           0
         NMat0=    1 NMatS0=      1 NMatT0=    0 NMatD0=    1 NMtDS0=    0 NMtDT0=    0
 Petite list used in FoFCou.
 Initial guess orbital symmetries:
       Occupied  (A1) (A1) (A1) (A1) (B2) (A1) (B2) (B1)
       Virtual   (B1) (A1) (B2) (A1) (B2) (A1) (A1) (B1) (B2) (A1)
                 (B1) (A1) (B2) (B2) (A1) (A1) (A1) (B2) (B1) (A2)
                 (A2) (A1) (B2) (A1) (A1) (B1) (A1) (B2) (A1) (A1)
 The electronic state of the initial guess is 1-A1.
 Keep R1 ints in memory in symmetry-blocked form, NReq=1135769.
 Requested convergence on RMS density matrix=1.00D-08 within 128 cycles.
 Requested convergence on MAX density matrix=1.00D-06.
 Requested convergence on             energy=1.00D-06.
 No special actions if energy rises.
 SCF Done:  E(RHF) =  -94.3822809642     A.U. after   10 cycles
            NFock= 10  Conv=0.68D-08     -V/T= 2.0034

 **********************************************************************

            Population analysis using the SCF density.

 **********************************************************************

 Orbital symmetries:
 BldTbl:  Degeneracy threshold= 1.00D-02
       Occupied  (A1) (A1) (A1) (A1) (B2) (A1) (B2) (B1)
       Virtual   (B1) (A1) (B2) (A1) (B2) (A1) (B1) (A1) (B2) (A1)
                 (B1) (A1) (B2) (A1) (B2) (A1) (A1) (B2) (B1) (A2)
                 (A2) (A1) (B2) (A1) (A1) (B1) (A1) (B2) (A1) (A1)
 The electronic state is 1-A1.
 Alpha  occ. eigenvalues --  -15.91423 -11.60020  -1.55242  -1.17574  -1.03145
 Alpha  occ. eigenvalues --   -0.96936  -0.84079  -0.78028
 Alpha virt. eigenvalues --   -0.13839  -0.01795   0.02068   0.04707   0.13499
 Alpha virt. eigenvalues --    0.20473   0.50063   0.50719   0.52359   0.58518
 Alpha virt. eigenvalues --    0.70668   0.71158   0.80006   0.89471   0.91551
 Alpha virt. eigenvalues --    0.92080   1.16922   1.35421   1.42548   1.46038
 Alpha virt. eigenvalues --    1.81322   1.88568   2.06286   2.20666   2.38969
 Alpha virt. eigenvalues --    2.44583   2.75970   2.80307   3.89099   4.21959
          Condensed to atoms (all electrons):
               1          2          3          4          5          6
     1  C    4.815804   0.378913   0.378913   0.430827  -0.022482  -0.022482
     2  H    0.378913   0.337079  -0.009498  -0.031365  -0.001459   0.001348
     3  H    0.378913  -0.009498   0.337079  -0.031365   0.001348  -0.001459
     4  N    0.430827  -0.031365  -0.031365   6.682810   0.308583   0.308583
     5  H   -0.022482  -0.001459   0.001348   0.308583   0.233374  -0.008166
     6  H   -0.022482   0.001348  -0.001459   0.308583  -0.008166   0.233374
 Mulliken charges:
               1
     1  C    0.040507
     2  H    0.324981
     3  H    0.324981
     4  N   -0.668073
     5  H    0.488802
     6  H    0.488802
 Sum of Mulliken charges =   1.00000
 Mulliken charges with hydrogens summed into heavy atoms:
               1
     1  C    0.690470
     4  N    0.309530
 DipInt: DoE/N= T F RetVal/Mat= T F Init=T NMatP=  1 IDeriv=0 Min/MaxMlt=  0  4
 Entering OneElI...
 OneElI was handed    33549742 working-precision words.
 Multipole integrals L=0 to 4 MinM= 0 MaxM= 0.
 Requested accuracy = 0.1000D-12
 ShPair: Thresh= 1.00D-13 NBox=     0 BxSize= 0.00D+00 RnKept= 5.61D+00
         NSMCal=                  136 NSMKep=                 136
 PrsmSu:  NPrtUS=   1 ThrOK=F IAlg=1 NPAlg=1 LenDen=           0.
 Prism:   IPart=     0 DynPar=F LinDyn=F Incr=           1.
 PRISM was handed    33533361 working-precision words and   136 shell-pairs
 IPart=  0 NShTot=         136 NBatch=          26 AvBLen=         5.2
 PrSmSu:  NxtVal=              2.
 Electronic moments (au):
        -16.00000000          0.00000000          0.00000000          0.02727028
         -9.22750069        -17.07484573        -41.98821090          0.00000000
          0.00000000          0.00000000          0.00000000          0.00000000
         10.44526717          0.00000000          0.00000000         -0.14237800
          0.00000000          0.00000000          5.09304074          0.00000000
        -28.51330374        -71.27967244       -229.37287369          0.00000000
          0.00000000          0.00000000          0.00000000          0.00000000
          0.00000000        -13.59343654        -27.16669075        -68.59278921
          0.00000000          0.00000000          0.00000000
 Electronic spatial extent (au):  <R**2>=             68.2906
 DipInt: DoE/N= F T RetVal/Mat= T F Init=T NMatP=  1 IDeriv=0 Min/MaxMlt=  0  4
 Nuclear    moments (au):
         17.00000000          0.00000000          0.00000000          0.00000000
          0.00000000         11.74546432         38.54293113          0.00000000
          0.00000000          0.00000000          0.00000000          0.00000000
         -6.41462914          0.00000000          0.00000000          0.00000000
          0.00000000          0.00000000         -3.03802215          0.00000000
          0.00000000         34.73730972        125.76863527          0.00000000
          0.00000000          0.00000000          0.00000000          0.00000000
          0.00000000          0.00000000          0.00000000         58.43739075
          0.00000000          0.00000000          0.00000000
 Total      moments (au):
          1.00000000          0.00000000          0.00000000          0.02727028
         -9.22750069         -5.32938141         -3.44527976          0.00000000
          0.00000000          0.00000000          0.00000000          0.00000000
          4.03063803          0.00000000          0.00000000         -0.14237800
          0.00000000          0.00000000          2.05501859          0.00000000
        -28.51330374        -36.54236272       -103.60423841          0.00000000
          0.00000000          0.00000000          0.00000000          0.00000000
          0.00000000        -13.59343654        -27.16669075        -10.15539845
          0.00000000          0.00000000          0.00000000
 Traceless Quadrup. (au):
         -3.22678007          0.67133921          2.55544086          0.00000000
          0.00000000          0.00000000
 Charge=              1.0000 electrons
 Dipole moment (field-independent basis, Debye):
    X=              0.0000    Y=              0.0000    Z=              0.0693  Tot=              0.0693
 Quadrupole moment (field-independent basis, Debye-Ang):
   XX=            -12.4113   YY=             -7.1682   ZZ=             -4.6340
   XY=              0.0000   XZ=              0.0000   YZ=              0.0000
 Traceless Quadrupole moment (field-independent basis, Debye-Ang):
   XX=             -4.3401   YY=              0.9030   ZZ=              3.4372
   XY=              0.0000   XZ=              0.0000   YZ=              0.0000
 Octapole moment (field-independent basis, Debye-Ang**2):
  XXX=              0.0000  YYY=              0.0000  ZZZ=              2.8689  XYY=              0.0000
  XXY=              0.0000  XXZ=             -0.1013  XZZ=              0.0000  YZZ=              0.0000
  YYZ=              1.4627  XYZ=              0.0000
 Hexadecapole moment (field-independent basis, Debye-Ang**3):
 XXXX=            -10.7395 YYYY=            -13.7636 ZZZZ=            -39.0223 XXXY=              0.0000
 XXXZ=              0.0000 YYYX=              0.0000 YYYZ=              0.0000 ZZZX=              0.0000
 ZZZY=              0.0000 XXYY=             -5.1199 XXZZ=            -10.2323 YYZZ=             -3.8250
 XXYZ=              0.0000 YYXZ=              0.0000 ZZXY=              0.0000
 N-N= 3.870073539401D+01 E-N=-2.925001394886D+02  KE= 9.406309510397D+01
 Symmetry A1   KE= 8.619318326326D+01
 Symmetry A2   KE= 3.066909605100D-34
 Symmetry B1   KE= 2.869841107370D+00
 Symmetry B2   KE= 5.000070733340D+00
 Entering OneElI...
 OneElI was handed    33550295 working-precision words.
 Calculate electrostatic properties
    NBasis =    38  MinDer = 0  MaxDer = 0
    NGrid  =     6  NMatD  =   1
 Requested accuracy = 0.1000D-12
 ShPair: Thresh= 1.00D-13 NBox=     0 BxSize= 0.00D+00 RnKept= 5.61D+00
         NSMCal=                  136 NSMKep=                 136
 PrsmSu:  NPrtUS=   1 ThrOK=F IAlg=1 NPAlg=1 LenDen=           0.
 Prism:   IPart=     0 DynPar=F LinDyn=F Incr=           8.
 PRISM was handed    33533999 working-precision words and   136 shell-pairs
 IPart=  0 NShTot=         816 NBatch=         136 AvBLen=         6.0
 PrSmSu:  NxtVal=              9.
 --------------------------------------------------------
       Center         ----      EFG at Nuclei      ----
                      3XX-RR        3YY-RR        3ZZ-RR
 --------------------------------------------------------
     1   Atom       -0.820158      0.553200      0.266958
     2   Atom        0.137851     -0.174040      0.036189
     3   Atom        0.137851     -0.174040      0.036189
     4   Atom        0.159302     -0.013723     -0.145578
     5   Atom        0.196607     -0.208948      0.012341
     6   Atom        0.196607     -0.208948      0.012341
 --------------------------------------------------------
                        XY            XZ            YZ
 --------------------------------------------------------
     1   Atom        0.000000      0.000000      0.000000
     2   Atom        0.000000      0.000000      0.177304
     3   Atom        0.000000      0.000000     -0.177304
     4   Atom        0.000000      0.000000      0.000000
     5   Atom        0.000000      0.000000     -0.220504
     6   Atom        0.000000      0.000000      0.220504
 --------------------------------------------------------


 ---------------------------------------------------------------------------------
              Nuclear Quadrupole Coupling Constant in Principal Axis System
 ---------------------------------------------------------------------------------

       Atom             a.u.   MegaHertz   Gauss  10(-4) cm-1        Axes

              Baa    -0.1456     0.699     0.249     0.233  0.0000  0.0000  1.0000
     4 N(14)  Bbb    -0.0137     0.066     0.024     0.022  0.0000  1.0000  0.0000
              Bcc     0.1593    -0.765    -0.273    -0.255  1.0000  0.0000  0.0000
 

 ---------------------------------------------------------------------------------

 No NMR shielding tensors so no spin-rotation constants.
 Leave Link  601 at Thu Apr  2 16:14:10 2015, MaxMem=    33554432 cpu:         0.1
 FitSet:  NAtFit=     6 NAtPot=     6 NAtFrz=     0 MDM=    10 TotChg=   1.00000
 Merz-Kollman atomic radii used.
 Atom Element Radius
    1     6    1.50
    2     1    1.20
    3     1    1.20
    4     7    1.50
    5     1    1.20
    6     1    1.20
 Generate VDW surfaces: Layer= 4 Dens= 6 Start= 1.400 Inc= 0.200

 **********************************************************************

            Electrostatic Properties Using The SCF Density

 **********************************************************************

       Atomic Center    1 is at   0.000000  0.000000 -0.674887
       Atomic Center    2 is at   0.000000  0.944478 -1.213665
       Atomic Center    3 is at   0.000000 -0.944478 -1.213665
       Atomic Center    4 is at   0.000000  0.000000  0.599636
       Atomic Center    5 is at   0.000000  0.867464  1.139600
       Atomic Center    6 is at   0.000000 -0.867464  1.139600
      ESP Fit Center    7 is at   2.059649  0.000000 -0.265197
      ESP Fit Center    8 is at   2.017488  0.414604 -0.265197
      ESP Fit Center    9 is at   1.892731  0.812235 -0.265197
      ESP Fit Center   10 is at   1.690485  1.176612 -0.265197
      ESP Fit Center   11 is at   1.419030  1.492819 -0.265197
      ESP Fit Center   12 is at  -1.260724  1.628721 -0.265197
      ESP Fit Center   13 is at  -1.562775  1.341599 -0.265197
      ESP Fit Center   14 is at  -1.800847  0.999552 -0.265197
      ESP Fit Center   15 is at  -1.965192  0.616583 -0.265197
      ESP Fit Center   16 is at  -2.049082  0.208371 -0.265197
      ESP Fit Center   17 is at  -2.049082 -0.208371 -0.265197
      ESP Fit Center   18 is at  -1.965192 -0.616583 -0.265197
      ESP Fit Center   19 is at  -1.800847 -0.999552 -0.265197
      ESP Fit Center   20 is at  -1.562775 -1.341599 -0.265197
      ESP Fit Center   21 is at  -1.260724 -1.628721 -0.265197
      ESP Fit Center   22 is at   1.419030 -1.492819 -0.265197
      ESP Fit Center   23 is at   1.690485 -1.176612 -0.265197
      ESP Fit Center   24 is at   1.892731 -0.812235 -0.265197
      ESP Fit Center   25 is at   2.017488 -0.414604 -0.265197
      ESP Fit Center   26 is at   2.100000  0.000000 -0.674887
      ESP Fit Center   27 is at   2.059649  0.409690 -0.674887
      ESP Fit Center   28 is at   1.940147  0.803635 -0.674887
      ESP Fit Center   29 is at   1.746086  1.166697 -0.674887
      ESP Fit Center   30 is at  -1.746086  1.166697 -0.674887
      ESP Fit Center   31 is at  -1.940147  0.803635 -0.674887
      ESP Fit Center   32 is at  -2.059649  0.409690 -0.674887
      ESP Fit Center   33 is at  -2.100000  0.000000 -0.674887
      ESP Fit Center   34 is at  -2.059649 -0.409690 -0.674887
      ESP Fit Center   35 is at  -1.940147 -0.803635 -0.674887
      ESP Fit Center   36 is at  -1.746086 -1.166697 -0.674887
      ESP Fit Center   37 is at   1.746086 -1.166697 -0.674887
      ESP Fit Center   38 is at   1.940147 -0.803635 -0.674887
      ESP Fit Center   39 is at   2.059649 -0.409690 -0.674887
      ESP Fit Center   40 is at   2.059649  0.000000 -1.084577
      ESP Fit Center   41 is at   2.017488  0.414604 -1.084577
      ESP Fit Center   42 is at   1.892731  0.812235 -1.084577
      ESP Fit Center   43 is at   1.690485  1.176612 -1.084577
      ESP Fit Center   44 is at  -1.800847  0.999552 -1.084577
      ESP Fit Center   45 is at  -1.965192  0.616583 -1.084577
      ESP Fit Center   46 is at  -2.049082  0.208371 -1.084577
      ESP Fit Center   47 is at  -2.049082 -0.208371 -1.084577
      ESP Fit Center   48 is at  -1.965192 -0.616583 -1.084577
      ESP Fit Center   49 is at  -1.800847 -0.999552 -1.084577
      ESP Fit Center   50 is at   1.690485 -1.176612 -1.084577
      ESP Fit Center   51 is at   1.892731 -0.812235 -1.084577
      ESP Fit Center   52 is at   2.017488 -0.414604 -1.084577
      ESP Fit Center   53 is at   1.940147  0.000000 -1.478522
      ESP Fit Center   54 is at   1.894787  0.417074 -1.478522
      ESP Fit Center   55 is at   1.760830  0.814647 -1.478522
      ESP Fit Center   56 is at  -1.662429  1.000250 -1.478522
      ESP Fit Center   57 is at  -1.838586  0.619492 -1.478522
      ESP Fit Center   58 is at  -1.928774  0.209767 -1.478522
      ESP Fit Center   59 is at  -1.928774 -0.209767 -1.478522
      ESP Fit Center   60 is at  -1.838586 -0.619492 -1.478522
      ESP Fit Center   61 is at  -1.662429 -1.000250 -1.478522
      ESP Fit Center   62 is at   1.760830 -0.814647 -1.478522
      ESP Fit Center   63 is at   1.894787 -0.417074 -1.478522
      ESP Fit Center   64 is at   1.746086  0.000000 -1.841584
      ESP Fit Center   65 is at   1.695348  0.417866 -1.841584
      ESP Fit Center   66 is at  -1.695348  0.417866 -1.841584
      ESP Fit Center   67 is at  -1.746086  0.000000 -1.841584
      ESP Fit Center   68 is at  -1.695348 -0.417866 -1.841584
      ESP Fit Center   69 is at   1.695348 -0.417866 -1.841584
      ESP Fit Center   70 is at   1.484924  0.000000 -2.159811
      ESP Fit Center   71 is at   1.424774  0.418352 -2.159811
      ESP Fit Center   72 is at  -1.424774  0.418352 -2.159811
      ESP Fit Center   73 is at  -1.484924  0.000000 -2.159811
      ESP Fit Center   74 is at  -1.424774 -0.418352 -2.159811
      ESP Fit Center   75 is at   1.424774 -0.418352 -2.159811
      ESP Fit Center   76 is at   1.166697  0.000000 -2.420973
      ESP Fit Center   77 is at   1.087913  0.421460 -2.420973
      ESP Fit Center   78 is at  -1.146832  0.214380 -2.420973
      ESP Fit Center   79 is at  -1.146832 -0.214380 -2.420973
      ESP Fit Center   80 is at   1.087913 -0.421460 -2.420973
      ESP Fit Center   81 is at   0.803635  0.000000 -2.615034
      ESP Fit Center   82 is at  -0.803635  0.000000 -2.615034
      ESP Fit Center   83 is at   0.409690  0.000000 -2.734536
      ESP Fit Center   84 is at  -0.409690  0.000000 -2.734536
      ESP Fit Center   85 is at   0.000000  0.000000 -2.774887
      ESP Fit Center   86 is at   0.529510  2.007878 -0.025726
      ESP Fit Center   87 is at   0.109609  2.127350 -0.025726
      ESP Fit Center   88 is at  -0.325095  2.087069 -0.025726
      ESP Fit Center   89 is at  -0.715893  1.892474 -0.025726
      ESP Fit Center   90 is at   1.202114  1.764065 -0.373665
      ESP Fit Center   91 is at   0.907129  2.081982 -0.373665
      ESP Fit Center   92 is at   0.531543  2.298827 -0.373665
      ESP Fit Center   93 is at   0.108727  2.395332 -0.373665
      ESP Fit Center   94 is at  -0.323751  2.362923 -0.373665
      ESP Fit Center   95 is at  -0.727461  2.204478 -0.373665
      ESP Fit Center   96 is at  -1.066534  1.934077 -0.373665
      ESP Fit Center   97 is at   1.405347  1.755856 -0.778849
      ESP Fit Center   98 is at   1.147461  2.091939 -0.778849
      ESP Fit Center   99 is at   0.811378  2.349825 -0.778849
      ESP Fit Center  100 is at   0.420000  2.511939 -0.778849
      ESP Fit Center  101 is at   0.000000  2.567233 -0.778849
      ESP Fit Center  102 is at  -0.420000  2.511939 -0.778849
      ESP Fit Center  103 is at  -0.811378  2.349825 -0.778849
      ESP Fit Center  104 is at  -1.147461  2.091939 -0.778849
      ESP Fit Center  105 is at  -1.405347  1.755856 -0.778849
      ESP Fit Center  106 is at   1.627220  1.362277 -1.213665
      ESP Fit Center  107 is at   1.472195  1.753824 -1.213665
      ESP Fit Center  108 is at   1.224667  2.094517 -1.213665
      ESP Fit Center  109 is at   0.900189  2.362949 -1.213665
      ESP Fit Center  110 is at   0.519149  2.542253 -1.213665
      ESP Fit Center  111 is at   0.105488  2.621163 -1.213665
      ESP Fit Center  112 is at  -0.314801  2.594721 -1.213665
      ESP Fit Center  113 is at  -0.715309  2.464587 -1.213665
      ESP Fit Center  114 is at  -1.070872  2.238940 -1.213665
      ESP Fit Center  115 is at  -1.359149  1.931957 -1.213665
      ESP Fit Center  116 is at  -1.562024  1.562927 -1.213665
      ESP Fit Center  117 is at   1.622755  0.944478 -1.648481
      ESP Fit Center  118 is at   1.567461  1.364478 -1.648481
      ESP Fit Center  119 is at   1.405347  1.755856 -1.648481
      ESP Fit Center  120 is at   1.147461  2.091939 -1.648481
      ESP Fit Center  121 is at   0.811378  2.349825 -1.648481
      ESP Fit Center  122 is at   0.420000  2.511939 -1.648481
      ESP Fit Center  123 is at   0.000000  2.567233 -1.648481
      ESP Fit Center  124 is at  -0.420000  2.511939 -1.648481
      ESP Fit Center  125 is at  -0.811378  2.349825 -1.648481
      ESP Fit Center  126 is at  -1.147461  2.091939 -1.648481
      ESP Fit Center  127 is at  -1.405347  1.755856 -1.648481
      ESP Fit Center  128 is at  -1.567461  1.364478 -1.648481
      ESP Fit Center  129 is at  -1.622755  0.944478 -1.648481
      ESP Fit Center  130 is at   1.454923  0.944478 -2.053665
      ESP Fit Center  131 is at   1.390285  1.373324 -2.053665
      ESP Fit Center  132 is at   1.202114  1.764065 -2.053665
      ESP Fit Center  133 is at   0.907129  2.081982 -2.053665
      ESP Fit Center  134 is at   0.531543  2.298827 -2.053665
      ESP Fit Center  135 is at   0.108727  2.395332 -2.053665
      ESP Fit Center  136 is at  -0.323751  2.362923 -2.053665
      ESP Fit Center  137 is at  -0.727461  2.204478 -2.053665
      ESP Fit Center  138 is at  -1.066534  1.934077 -2.053665
      ESP Fit Center  139 is at  -1.310840  1.575745 -2.053665
      ESP Fit Center  140 is at  -1.438672  1.161323 -2.053665
      ESP Fit Center  141 is at  -1.438672  0.727633 -2.053665
      ESP Fit Center  142 is at   1.187939  0.944478 -2.401604
      ESP Fit Center  143 is at   1.107720  1.373611 -2.401604
      ESP Fit Center  144 is at   0.877898  1.744788 -2.401604
      ESP Fit Center  145 is at   0.529510  2.007878 -2.401604
      ESP Fit Center  146 is at   0.109609  2.127350 -2.401604
      ESP Fit Center  147 is at  -0.325095  2.087069 -2.401604
      ESP Fit Center  148 is at  -0.715893  1.892474 -2.401604
      ESP Fit Center  149 is at  -1.010006  1.569848 -2.401604
      ESP Fit Center  150 is at  -1.167712  1.162761 -2.401604
      ESP Fit Center  151 is at  -1.167712  0.726195 -2.401604
      ESP Fit Center  152 is at   1.107720  0.515345 -2.401604
      ESP Fit Center  153 is at   0.840000  0.944478 -2.668588
      ESP Fit Center  154 is at   0.727461  1.364478 -2.668588
      ESP Fit Center  155 is at   0.420000  1.671939 -2.668588
      ESP Fit Center  156 is at   0.000000  1.784478 -2.668588
      ESP Fit Center  157 is at  -0.420000  1.671939 -2.668588
      ESP Fit Center  158 is at  -0.727461  1.364478 -2.668588
      ESP Fit Center  159 is at  -0.840000  0.944478 -2.668588
      ESP Fit Center  160 is at  -0.727461  0.524478 -2.668588
      ESP Fit Center  161 is at   0.727461  0.524478 -2.668588
      ESP Fit Center  162 is at   0.434816  0.944478 -2.836420
      ESP Fit Center  163 is at   0.217408  1.321040 -2.836420
      ESP Fit Center  164 is at  -0.217408  1.321040 -2.836420
      ESP Fit Center  165 is at  -0.434816  0.944478 -2.836420
      ESP Fit Center  166 is at  -0.217408  0.567916 -2.836420
      ESP Fit Center  167 is at   0.217408  0.567916 -2.836420
      ESP Fit Center  168 is at   0.000000  0.944478 -2.893665
      ESP Fit Center  169 is at  -0.715893 -1.892474 -0.025726
      ESP Fit Center  170 is at  -0.325095 -2.087069 -0.025726
      ESP Fit Center  171 is at   0.109609 -2.127350 -0.025726
      ESP Fit Center  172 is at   0.529510 -2.007878 -0.025726
      ESP Fit Center  173 is at  -1.066534 -1.934077 -0.373665
      ESP Fit Center  174 is at  -0.727461 -2.204478 -0.373665
      ESP Fit Center  175 is at  -0.323751 -2.362923 -0.373665
      ESP Fit Center  176 is at   0.108727 -2.395332 -0.373665
      ESP Fit Center  177 is at   0.531543 -2.298827 -0.373665
      ESP Fit Center  178 is at   0.907129 -2.081982 -0.373665
      ESP Fit Center  179 is at   1.202114 -1.764065 -0.373665
      ESP Fit Center  180 is at  -1.405347 -1.755856 -0.778849
      ESP Fit Center  181 is at  -1.147461 -2.091939 -0.778849
      ESP Fit Center  182 is at  -0.811378 -2.349825 -0.778849
      ESP Fit Center  183 is at  -0.420000 -2.511939 -0.778849
      ESP Fit Center  184 is at   0.000000 -2.567233 -0.778849
      ESP Fit Center  185 is at   0.420000 -2.511939 -0.778849
      ESP Fit Center  186 is at   0.811378 -2.349825 -0.778849
      ESP Fit Center  187 is at   1.147461 -2.091939 -0.778849
      ESP Fit Center  188 is at   1.405347 -1.755856 -0.778849
      ESP Fit Center  189 is at  -1.562024 -1.562927 -1.213665
      ESP Fit Center  190 is at  -1.359149 -1.931957 -1.213665
      ESP Fit Center  191 is at  -1.070872 -2.238940 -1.213665
      ESP Fit Center  192 is at  -0.715309 -2.464587 -1.213665
      ESP Fit Center  193 is at  -0.314801 -2.594721 -1.213665
      ESP Fit Center  194 is at   0.105488 -2.621163 -1.213665
      ESP Fit Center  195 is at   0.519149 -2.542253 -1.213665
      ESP Fit Center  196 is at   0.900189 -2.362949 -1.213665
      ESP Fit Center  197 is at   1.224667 -2.094517 -1.213665
      ESP Fit Center  198 is at   1.472195 -1.753824 -1.213665
      ESP Fit Center  199 is at   1.627220 -1.362277 -1.213665
      ESP Fit Center  200 is at   1.622755 -0.944478 -1.648481
      ESP Fit Center  201 is at  -1.622755 -0.944478 -1.648481
      ESP Fit Center  202 is at  -1.567461 -1.364478 -1.648481
      ESP Fit Center  203 is at  -1.405347 -1.755856 -1.648481
      ESP Fit Center  204 is at  -1.147461 -2.091939 -1.648481
      ESP Fit Center  205 is at  -0.811378 -2.349825 -1.648481
      ESP Fit Center  206 is at  -0.420000 -2.511939 -1.648481
      ESP Fit Center  207 is at   0.000000 -2.567233 -1.648481
      ESP Fit Center  208 is at   0.420000 -2.511939 -1.648481
      ESP Fit Center  209 is at   0.811378 -2.349825 -1.648481
      ESP Fit Center  210 is at   1.147461 -2.091939 -1.648481
      ESP Fit Center  211 is at   1.405347 -1.755856 -1.648481
      ESP Fit Center  212 is at   1.567461 -1.364478 -1.648481
      ESP Fit Center  213 is at   1.454923 -0.944478 -2.053665
      ESP Fit Center  214 is at  -1.438672 -0.727633 -2.053665
      ESP Fit Center  215 is at  -1.438672 -1.161323 -2.053665
      ESP Fit Center  216 is at  -1.310840 -1.575745 -2.053665
      ESP Fit Center  217 is at  -1.066534 -1.934077 -2.053665
      ESP Fit Center  218 is at  -0.727461 -2.204478 -2.053665
      ESP Fit Center  219 is at  -0.323751 -2.362923 -2.053665
      ESP Fit Center  220 is at   0.108727 -2.395332 -2.053665
      ESP Fit Center  221 is at   0.531543 -2.298827 -2.053665
      ESP Fit Center  222 is at   0.907129 -2.081982 -2.053665
      ESP Fit Center  223 is at   1.202114 -1.764065 -2.053665
      ESP Fit Center  224 is at   1.390285 -1.373324 -2.053665
      ESP Fit Center  225 is at   1.187939 -0.944478 -2.401604
      ESP Fit Center  226 is at   1.107720 -0.515345 -2.401604
      ESP Fit Center  227 is at  -1.167712 -0.726195 -2.401604
      ESP Fit Center  228 is at  -1.167712 -1.162761 -2.401604
      ESP Fit Center  229 is at  -1.010006 -1.569848 -2.401604
      ESP Fit Center  230 is at  -0.715893 -1.892474 -2.401604
      ESP Fit Center  231 is at  -0.325095 -2.087069 -2.401604
      ESP Fit Center  232 is at   0.109609 -2.127350 -2.401604
      ESP Fit Center  233 is at   0.529510 -2.007878 -2.401604
      ESP Fit Center  234 is at   0.877898 -1.744788 -2.401604
      ESP Fit Center  235 is at   1.107720 -1.373611 -2.401604
      ESP Fit Center  236 is at   0.840000 -0.944478 -2.668588
      ESP Fit Center  237 is at   0.727461 -0.524478 -2.668588
      ESP Fit Center  238 is at  -0.727461 -0.524478 -2.668588
      ESP Fit Center  239 is at  -0.840000 -0.944478 -2.668588
      ESP Fit Center  240 is at  -0.727461 -1.364478 -2.668588
      ESP Fit Center  241 is at  -0.420000 -1.671939 -2.668588
      ESP Fit Center  242 is at   0.000000 -1.784478 -2.668588
      ESP Fit Center  243 is at   0.420000 -1.671939 -2.668588
      ESP Fit Center  244 is at   0.727461 -1.364478 -2.668588
      ESP Fit Center  245 is at   0.434816 -0.944478 -2.836420
      ESP Fit Center  246 is at   0.217408 -0.567916 -2.836420
      ESP Fit Center  247 is at  -0.217408 -0.567916 -2.836420
      ESP Fit Center  248 is at  -0.434816 -0.944478 -2.836420
      ESP Fit Center  249 is at  -0.217408 -1.321040 -2.836420
      ESP Fit Center  250 is at   0.217408 -1.321040 -2.836420
      ESP Fit Center  251 is at   0.000000 -0.944478 -2.893665
      ESP Fit Center  252 is at   0.000000  0.000000  2.699636
      ESP Fit Center  253 is at   0.409690  0.000000  2.659285
      ESP Fit Center  254 is at  -0.409690  0.000000  2.659285
      ESP Fit Center  255 is at   0.803635  0.000000  2.539783
      ESP Fit Center  256 is at  -0.803635  0.000000  2.539783
      ESP Fit Center  257 is at   1.166697  0.000000  2.345722
      ESP Fit Center  258 is at   1.087913  0.421460  2.345722
      ESP Fit Center  259 is at  -1.146832  0.214380  2.345722
      ESP Fit Center  260 is at  -1.146832 -0.214380  2.345722
      ESP Fit Center  261 is at   1.087913 -0.421460  2.345722
      ESP Fit Center  262 is at   1.484924  0.000000  2.084560
      ESP Fit Center  263 is at   1.424774  0.418352  2.084560
      ESP Fit Center  264 is at  -1.424774  0.418352  2.084560
      ESP Fit Center  265 is at  -1.484924  0.000000  2.084560
      ESP Fit Center  266 is at  -1.424774 -0.418352  2.084560
      ESP Fit Center  267 is at   1.424774 -0.418352  2.084560
      ESP Fit Center  268 is at   1.746086  0.000000  1.766333
      ESP Fit Center  269 is at   1.695348  0.417866  1.766333
      ESP Fit Center  270 is at  -1.695348  0.417866  1.766333
      ESP Fit Center  271 is at  -1.746086  0.000000  1.766333
      ESP Fit Center  272 is at  -1.695348 -0.417866  1.766333
      ESP Fit Center  273 is at   1.695348 -0.417866  1.766333
      ESP Fit Center  274 is at   1.940147  0.000000  1.403271
      ESP Fit Center  275 is at   1.894787  0.417074  1.403271
      ESP Fit Center  276 is at   1.760830  0.814647  1.403271
      ESP Fit Center  277 is at  -1.662429  1.000250  1.403271
      ESP Fit Center  278 is at  -1.838586  0.619492  1.403271
      ESP Fit Center  279 is at  -1.928774  0.209767  1.403271
      ESP Fit Center  280 is at  -1.928774 -0.209767  1.403271
      ESP Fit Center  281 is at  -1.838586 -0.619492  1.403271
      ESP Fit Center  282 is at  -1.662429 -1.000250  1.403271
      ESP Fit Center  283 is at   1.760830 -0.814647  1.403271
      ESP Fit Center  284 is at   1.894787 -0.417074  1.403271
      ESP Fit Center  285 is at   2.059649  0.000000  1.009326
      ESP Fit Center  286 is at   2.017488  0.414604  1.009326
      ESP Fit Center  287 is at   1.892731  0.812235  1.009326
      ESP Fit Center  288 is at   1.690485  1.176612  1.009326
      ESP Fit Center  289 is at  -1.800847  0.999552  1.009326
      ESP Fit Center  290 is at  -1.965192  0.616583  1.009326
      ESP Fit Center  291 is at  -2.049082  0.208371  1.009326
      ESP Fit Center  292 is at  -2.049082 -0.208371  1.009326
      ESP Fit Center  293 is at  -1.965192 -0.616583  1.009326
      ESP Fit Center  294 is at  -1.800847 -0.999552  1.009326
      ESP Fit Center  295 is at   1.690485 -1.176612  1.009326
      ESP Fit Center  296 is at   1.892731 -0.812235  1.009326
      ESP Fit Center  297 is at   2.017488 -0.414604  1.009326
      ESP Fit Center  298 is at   2.100000  0.000000  0.599636
      ESP Fit Center  299 is at   2.059649  0.409690  0.599636
      ESP Fit Center  300 is at   1.940147  0.803635  0.599636
      ESP Fit Center  301 is at   1.746086  1.166697  0.599636
      ESP Fit Center  302 is at   1.484924  1.484924  0.599636
      ESP Fit Center  303 is at  -1.484924  1.484924  0.599636
      ESP Fit Center  304 is at  -1.746086  1.166697  0.599636
      ESP Fit Center  305 is at  -1.940147  0.803635  0.599636
      ESP Fit Center  306 is at  -2.059649  0.409690  0.599636
      ESP Fit Center  307 is at  -2.100000  0.000000  0.599636
      ESP Fit Center  308 is at  -2.059649 -0.409690  0.599636
      ESP Fit Center  309 is at  -1.940147 -0.803635  0.599636
      ESP Fit Center  310 is at  -1.746086 -1.166697  0.599636
      ESP Fit Center  311 is at  -1.484924 -1.484924  0.599636
      ESP Fit Center  312 is at   1.484924 -1.484924  0.599636
      ESP Fit Center  313 is at   1.746086 -1.166697  0.599636
      ESP Fit Center  314 is at   1.940147 -0.803635  0.599636
      ESP Fit Center  315 is at   2.059649 -0.409690  0.599636
      ESP Fit Center  316 is at   2.059649  0.000000  0.189946
      ESP Fit Center  317 is at   2.017488  0.414604  0.189946
      ESP Fit Center  318 is at   1.892731  0.812235  0.189946
      ESP Fit Center  319 is at   1.690485  1.176612  0.189946
      ESP Fit Center  320 is at   1.419030  1.492819  0.189946
      ESP Fit Center  321 is at   1.089480  1.747909  0.189946
      ESP Fit Center  322 is at  -1.260724  1.628721  0.189946
      ESP Fit Center  323 is at  -1.562775  1.341599  0.189946
      ESP Fit Center  324 is at  -1.800847  0.999552  0.189946
      ESP Fit Center  325 is at  -1.965192  0.616583  0.189946
      ESP Fit Center  326 is at  -2.049082  0.208371  0.189946
      ESP Fit Center  327 is at  -2.049082 -0.208371  0.189946
      ESP Fit Center  328 is at  -1.965192 -0.616583  0.189946
      ESP Fit Center  329 is at  -1.800847 -0.999552  0.189946
      ESP Fit Center  330 is at  -1.562775 -1.341599  0.189946
      ESP Fit Center  331 is at  -1.260724 -1.628721  0.189946
      ESP Fit Center  332 is at   1.089480 -1.747909  0.189946
      ESP Fit Center  333 is at   1.419030 -1.492819  0.189946
      ESP Fit Center  334 is at   1.690485 -1.176612  0.189946
      ESP Fit Center  335 is at   1.892731 -0.812235  0.189946
      ESP Fit Center  336 is at   2.017488 -0.414604  0.189946
      ESP Fit Center  337 is at   0.000000  0.867464  2.819600
      ESP Fit Center  338 is at   0.434816  0.867464  2.762355
      ESP Fit Center  339 is at   0.217408  1.244026  2.762355
      ESP Fit Center  340 is at  -0.217408  1.244026  2.762355
      ESP Fit Center  341 is at  -0.434816  0.867464  2.762355
      ESP Fit Center  342 is at  -0.217408  0.490902  2.762355
      ESP Fit Center  343 is at   0.217408  0.490902  2.762355
      ESP Fit Center  344 is at   0.840000  0.867464  2.594523
      ESP Fit Center  345 is at   0.727461  1.287464  2.594523
      ESP Fit Center  346 is at   0.420000  1.594925  2.594523
      ESP Fit Center  347 is at   0.000000  1.707464  2.594523
      ESP Fit Center  348 is at  -0.420000  1.594925  2.594523
      ESP Fit Center  349 is at  -0.727461  1.287464  2.594523
      ESP Fit Center  350 is at  -0.840000  0.867464  2.594523
      ESP Fit Center  351 is at  -0.727461  0.447464  2.594523
      ESP Fit Center  352 is at   0.727461  0.447464  2.594523
      ESP Fit Center  353 is at   1.187939  0.867464  2.327539
      ESP Fit Center  354 is at   1.107720  1.296597  2.327539
      ESP Fit Center  355 is at   0.877898  1.667774  2.327539
      ESP Fit Center  356 is at   0.529510  1.930864  2.327539
      ESP Fit Center  357 is at   0.109609  2.050336  2.327539
      ESP Fit Center  358 is at  -0.325095  2.010055  2.327539
      ESP Fit Center  359 is at  -0.715893  1.815460  2.327539
      ESP Fit Center  360 is at  -1.010006  1.492834  2.327539
      ESP Fit Center  361 is at  -1.167712  1.085747  2.327539
      ESP Fit Center  362 is at  -1.167712  0.649181  2.327539
      ESP Fit Center  363 is at   1.454923  0.867464  1.979600
      ESP Fit Center  364 is at   1.390285  1.296310  1.979600
      ESP Fit Center  365 is at   1.202114  1.687051  1.979600
      ESP Fit Center  366 is at   0.907129  2.004968  1.979600
      ESP Fit Center  367 is at   0.531543  2.221813  1.979600
      ESP Fit Center  368 is at   0.108727  2.318318  1.979600
      ESP Fit Center  369 is at  -0.323751  2.285909  1.979600
      ESP Fit Center  370 is at  -0.727461  2.127464  1.979600
      ESP Fit Center  371 is at  -1.066534  1.857063  1.979600
      ESP Fit Center  372 is at  -1.310840  1.498731  1.979600
      ESP Fit Center  373 is at  -1.438672  1.084309  1.979600
      ESP Fit Center  374 is at   1.567461  1.287464  1.574416
      ESP Fit Center  375 is at   1.405347  1.678842  1.574416
      ESP Fit Center  376 is at   1.147461  2.014925  1.574416
      ESP Fit Center  377 is at   0.811378  2.272811  1.574416
      ESP Fit Center  378 is at   0.420000  2.434925  1.574416
      ESP Fit Center  379 is at   0.000000  2.490219  1.574416
      ESP Fit Center  380 is at  -0.420000  2.434925  1.574416
      ESP Fit Center  381 is at  -0.811378  2.272811  1.574416
      ESP Fit Center  382 is at  -1.147461  2.014925  1.574416
      ESP Fit Center  383 is at  -1.405347  1.678842  1.574416
      ESP Fit Center  384 is at  -1.567461  1.287464  1.574416
      ESP Fit Center  385 is at   1.627220  1.285263  1.139600
      ESP Fit Center  386 is at   1.472195  1.676810  1.139600
      ESP Fit Center  387 is at   1.224667  2.017503  1.139600
      ESP Fit Center  388 is at   0.900189  2.285935  1.139600
      ESP Fit Center  389 is at   0.519149  2.465239  1.139600
      ESP Fit Center  390 is at   0.105488  2.544149  1.139600
      ESP Fit Center  391 is at  -0.314801  2.517707  1.139600
      ESP Fit Center  392 is at  -0.715309  2.387573  1.139600
      ESP Fit Center  393 is at  -1.070872  2.161926  1.139600
      ESP Fit Center  394 is at  -1.359149  1.854943  1.139600
      ESP Fit Center  395 is at  -1.562024  1.485913  1.139600
      ESP Fit Center  396 is at   1.405347  1.678842  0.704784
      ESP Fit Center  397 is at   1.147461  2.014925  0.704784
      ESP Fit Center  398 is at   0.811378  2.272811  0.704784
      ESP Fit Center  399 is at   0.420000  2.434925  0.704784
      ESP Fit Center  400 is at   0.000000  2.490219  0.704784
      ESP Fit Center  401 is at  -0.420000  2.434925  0.704784
      ESP Fit Center  402 is at  -0.811378  2.272811  0.704784
      ESP Fit Center  403 is at  -1.147461  2.014925  0.704784
      ESP Fit Center  404 is at  -1.405347  1.678842  0.704784
      ESP Fit Center  405 is at   0.907129  2.004968  0.299600
      ESP Fit Center  406 is at   0.531543  2.221813  0.299600
      ESP Fit Center  407 is at   0.108727  2.318318  0.299600
      ESP Fit Center  408 is at  -0.323751  2.285909  0.299600
      ESP Fit Center  409 is at  -0.727461  2.127464  0.299600
      ESP Fit Center  410 is at  -1.066534  1.857063  0.299600
      ESP Fit Center  411 is at   0.000000 -0.867464  2.819600
      ESP Fit Center  412 is at   0.434816 -0.867464  2.762355
      ESP Fit Center  413 is at   0.217408 -0.490902  2.762355
      ESP Fit Center  414 is at  -0.217408 -0.490902  2.762355
      ESP Fit Center  415 is at  -0.434816 -0.867464  2.762355
      ESP Fit Center  416 is at  -0.217408 -1.244026  2.762355
      ESP Fit Center  417 is at   0.217408 -1.244026  2.762355
      ESP Fit Center  418 is at   0.840000 -0.867464  2.594523
      ESP Fit Center  419 is at   0.727461 -0.447464  2.594523
      ESP Fit Center  420 is at  -0.727461 -0.447464  2.594523
      ESP Fit Center  421 is at  -0.840000 -0.867464  2.594523
      ESP Fit Center  422 is at  -0.727461 -1.287464  2.594523
      ESP Fit Center  423 is at  -0.420000 -1.594925  2.594523
      ESP Fit Center  424 is at   0.000000 -1.707464  2.594523
      ESP Fit Center  425 is at   0.420000 -1.594925  2.594523
      ESP Fit Center  426 is at   0.727461 -1.287464  2.594523
      ESP Fit Center  427 is at   1.187939 -0.867464  2.327539
      ESP Fit Center  428 is at  -1.167712 -0.649181  2.327539
      ESP Fit Center  429 is at  -1.167712 -1.085747  2.327539
      ESP Fit Center  430 is at  -1.010006 -1.492834  2.327539
      ESP Fit Center  431 is at  -0.715893 -1.815460  2.327539
      ESP Fit Center  432 is at  -0.325095 -2.010055  2.327539
      ESP Fit Center  433 is at   0.109609 -2.050336  2.327539
      ESP Fit Center  434 is at   0.529510 -1.930864  2.327539
      ESP Fit Center  435 is at   0.877898 -1.667774  2.327539
      ESP Fit Center  436 is at   1.107720 -1.296597  2.327539
      ESP Fit Center  437 is at   1.454923 -0.867464  1.979600
      ESP Fit Center  438 is at  -1.438672 -1.084309  1.979600
      ESP Fit Center  439 is at  -1.310840 -1.498731  1.979600
      ESP Fit Center  440 is at  -1.066534 -1.857063  1.979600
      ESP Fit Center  441 is at  -0.727461 -2.127464  1.979600
      ESP Fit Center  442 is at  -0.323751 -2.285909  1.979600
      ESP Fit Center  443 is at   0.108727 -2.318318  1.979600
      ESP Fit Center  444 is at   0.531543 -2.221813  1.979600
      ESP Fit Center  445 is at   0.907129 -2.004968  1.979600
      ESP Fit Center  446 is at   1.202114 -1.687051  1.979600
      ESP Fit Center  447 is at   1.390285 -1.296310  1.979600
      ESP Fit Center  448 is at  -1.567461 -1.287464  1.574416
      ESP Fit Center  449 is at  -1.405347 -1.678842  1.574416
      ESP Fit Center  450 is at  -1.147461 -2.014925  1.574416
      ESP Fit Center  451 is at  -0.811378 -2.272811  1.574416
      ESP Fit Center  452 is at  -0.420000 -2.434925  1.574416
      ESP Fit Center  453 is at   0.000000 -2.490219  1.574416
      ESP Fit Center  454 is at   0.420000 -2.434925  1.574416
      ESP Fit Center  455 is at   0.811378 -2.272811  1.574416
      ESP Fit Center  456 is at   1.147461 -2.014925  1.574416
      ESP Fit Center  457 is at   1.405347 -1.678842  1.574416
      ESP Fit Center  458 is at   1.567461 -1.287464  1.574416
      ESP Fit Center  459 is at  -1.562024 -1.485913  1.139600
      ESP Fit Center  460 is at  -1.359149 -1.854943  1.139600
      ESP Fit Center  461 is at  -1.070872 -2.161926  1.139600
      ESP Fit Center  462 is at  -0.715309 -2.387573  1.139600
      ESP Fit Center  463 is at  -0.314801 -2.517707  1.139600
      ESP Fit Center  464 is at   0.105488 -2.544149  1.139600
      ESP Fit Center  465 is at   0.519149 -2.465239  1.139600
      ESP Fit Center  466 is at   0.900189 -2.285935  1.139600
      ESP Fit Center  467 is at   1.224667 -2.017503  1.139600
      ESP Fit Center  468 is at   1.472195 -1.676810  1.139600
      ESP Fit Center  469 is at   1.627220 -1.285263  1.139600
      ESP Fit Center  470 is at  -1.405347 -1.678842  0.704784
      ESP Fit Center  471 is at  -1.147461 -2.014925  0.704784
      ESP Fit Center  472 is at  -0.811378 -2.272811  0.704784
      ESP Fit Center  473 is at  -0.420000 -2.434925  0.704784
      ESP Fit Center  474 is at   0.000000 -2.490219  0.704784
      ESP Fit Center  475 is at   0.420000 -2.434925  0.704784
      ESP Fit Center  476 is at   0.811378 -2.272811  0.704784
      ESP Fit Center  477 is at   1.147461 -2.014925  0.704784
      ESP Fit Center  478 is at   1.405347 -1.678842  0.704784
      ESP Fit Center  479 is at  -1.066534 -1.857063  0.299600
      ESP Fit Center  480 is at  -0.727461 -2.127464  0.299600
      ESP Fit Center  481 is at  -0.323751 -2.285909  0.299600
      ESP Fit Center  482 is at   0.108727 -2.318318  0.299600
      ESP Fit Center  483 is at   0.531543 -2.221813  0.299600
      ESP Fit Center  484 is at   0.907129 -2.004968  0.299600
      ESP Fit Center  485 is at   2.363539  0.000000 -0.258131
      ESP Fit Center  486 is at   2.325556  0.422026 -0.258131
      ESP Fit Center  487 is at   2.212827  0.830488 -0.258131
      ESP Fit Center  488 is at   2.028977  1.212257 -0.258131
      ESP Fit Center  489 is at   1.779913  1.555064 -0.258131
      ESP Fit Center  490 is at   1.473642  1.847889 -0.258131
      ESP Fit Center  491 is at  -1.633353  1.708354 -0.258131
      ESP Fit Center  492 is at  -1.912143  1.389253 -0.258131
      ESP Fit Center  493 is at  -2.129475  1.025501 -0.258131
      ESP Fit Center  494 is at  -2.278363  0.628788 -0.258131
      ESP Fit Center  495 is at  -2.354024  0.211866 -0.258131
      ESP Fit Center  496 is at  -2.354024 -0.211866 -0.258131
      ESP Fit Center  497 is at  -2.278363 -0.628788 -0.258131
      ESP Fit Center  498 is at  -2.129475 -1.025501 -0.258131
      ESP Fit Center  499 is at  -1.912143 -1.389253 -0.258131
      ESP Fit Center  500 is at  -1.633353 -1.708354 -0.258131
      ESP Fit Center  501 is at   1.473642 -1.847889 -0.258131
      ESP Fit Center  502 is at   1.779913 -1.555064 -0.258131
      ESP Fit Center  503 is at   2.028977 -1.212257 -0.258131
      ESP Fit Center  504 is at   2.212827 -0.830488 -0.258131
      ESP Fit Center  505 is at   2.325556 -0.422026 -0.258131
      ESP Fit Center  506 is at   2.400000  0.000000 -0.674887
      ESP Fit Center  507 is at   2.363539  0.416756 -0.674887
      ESP Fit Center  508 is at   2.255262  0.820848 -0.674887
      ESP Fit Center  509 is at   2.078461  1.200000 -0.674887
      ESP Fit Center  510 is at   1.838507  1.542690 -0.674887
      ESP Fit Center  511 is at  -1.838507  1.542690 -0.674887
      ESP Fit Center  512 is at  -2.078461  1.200000 -0.674887
      ESP Fit Center  513 is at  -2.255262  0.820848 -0.674887
      ESP Fit Center  514 is at  -2.363539  0.416756 -0.674887
      ESP Fit Center  515 is at  -2.400000  0.000000 -0.674887
      ESP Fit Center  516 is at  -2.363539 -0.416756 -0.674887
      ESP Fit Center  517 is at  -2.255262 -0.820848 -0.674887
      ESP Fit Center  518 is at  -2.078461 -1.200000 -0.674887
      ESP Fit Center  519 is at  -1.838507 -1.542690 -0.674887
      ESP Fit Center  520 is at   1.838507 -1.542690 -0.674887
      ESP Fit Center  521 is at   2.078461 -1.200000 -0.674887
      ESP Fit Center  522 is at   2.255262 -0.820848 -0.674887
      ESP Fit Center  523 is at   2.363539 -0.416756 -0.674887
      ESP Fit Center  524 is at   2.363539  0.000000 -1.091643
      ESP Fit Center  525 is at   2.325556  0.422026 -1.091643
      ESP Fit Center  526 is at   2.212827  0.830488 -1.091643
      ESP Fit Center  527 is at   2.028977  1.212257 -1.091643
      ESP Fit Center  528 is at  -1.912143  1.389253 -1.091643
      ESP Fit Center  529 is at  -2.129475  1.025501 -1.091643
      ESP Fit Center  530 is at  -2.278363  0.628788 -1.091643
      ESP Fit Center  531 is at  -2.354024  0.211866 -1.091643
      ESP Fit Center  532 is at  -2.354024 -0.211866 -1.091643
      ESP Fit Center  533 is at  -2.278363 -0.628788 -1.091643
      ESP Fit Center  534 is at  -2.129475 -1.025501 -1.091643
      ESP Fit Center  535 is at  -1.912143 -1.389253 -1.091643
      ESP Fit Center  536 is at   2.028977 -1.212257 -1.091643
      ESP Fit Center  537 is at   2.212827 -0.830488 -1.091643
      ESP Fit Center  538 is at   2.325556 -0.422026 -1.091643
      ESP Fit Center  539 is at   2.255262  0.000000 -1.495735
      ESP Fit Center  540 is at   2.214507  0.426811 -1.495735
      ESP Fit Center  541 is at   2.093713  0.838196 -1.495735
      ESP Fit Center  542 is at   1.897247  1.219287 -1.495735
      ESP Fit Center  543 is at  -2.004557  1.033421 -1.495735
      ESP Fit Center  544 is at  -2.163908  0.635381 -1.495735
      ESP Fit Center  545 is at  -2.245050  0.214376 -1.495735
      ESP Fit Center  546 is at  -2.245050 -0.214376 -1.495735
      ESP Fit Center  547 is at  -2.163908 -0.635381 -1.495735
      ESP Fit Center  548 is at  -2.004557 -1.033421 -1.495735
      ESP Fit Center  549 is at   1.897247 -1.219287 -1.495735
      ESP Fit Center  550 is at   2.093713 -0.838196 -1.495735
      ESP Fit Center  551 is at   2.214507 -0.426811 -1.495735
      ESP Fit Center  552 is at   2.078461  0.000000 -1.874887
      ESP Fit Center  553 is at   2.035915  0.418391 -1.874887
      ESP Fit Center  554 is at   1.910018  0.819653 -1.874887
      ESP Fit Center  555 is at  -1.817295  1.008681 -1.874887
      ESP Fit Center  556 is at  -1.983141  0.622215 -1.874887
      ESP Fit Center  557 is at  -2.067797  0.210274 -1.874887
      ESP Fit Center  558 is at  -2.067797 -0.210274 -1.874887
      ESP Fit Center  559 is at  -1.983141 -0.622215 -1.874887
      ESP Fit Center  560 is at  -1.817295 -1.008681 -1.874887
      ESP Fit Center  561 is at   1.910018 -0.819653 -1.874887
      ESP Fit Center  562 is at   2.035915 -0.418391 -1.874887
      ESP Fit Center  563 is at   1.838507  0.000000 -2.217577
      ESP Fit Center  564 is at   1.788949  0.423989 -2.217577
      ESP Fit Center  565 is at   1.642950  0.825120 -2.217577
      ESP Fit Center  566 is at  -1.727631  0.628806 -2.217577
      ESP Fit Center  567 is at  -1.826075  0.213438 -2.217577
      ESP Fit Center  568 is at  -1.826075 -0.213438 -2.217577
      ESP Fit Center  569 is at  -1.727631 -0.628806 -2.217577
      ESP Fit Center  570 is at   1.642950 -0.825120 -2.217577
      ESP Fit Center  571 is at   1.788949 -0.423989 -2.217577
      ESP Fit Center  572 is at   1.542690  0.000000 -2.513394
      ESP Fit Center  573 is at   1.485483  0.416213 -2.513394
      ESP Fit Center  574 is at  -1.414973  0.614609 -2.513394
      ESP Fit Center  575 is at  -1.528322  0.210063 -2.513394
      ESP Fit Center  576 is at  -1.528322 -0.210063 -2.513394
      ESP Fit Center  577 is at  -1.414973 -0.614609 -2.513394
      ESP Fit Center  578 is at   1.485483 -0.416213 -2.513394
      ESP Fit Center  579 is at   1.200000  0.000000 -2.753348
      ESP Fit Center  580 is at   1.127631  0.410424 -2.753348
      ESP Fit Center  581 is at  -1.127631  0.410424 -2.753348
      ESP Fit Center  582 is at  -1.200000  0.000000 -2.753348
      ESP Fit Center  583 is at  -1.127631 -0.410424 -2.753348
      ESP Fit Center  584 is at   1.127631 -0.410424 -2.753348
      ESP Fit Center  585 is at   0.820848  0.000000 -2.930149
      ESP Fit Center  586 is at   0.710876  0.410424 -2.930149
      ESP Fit Center  587 is at  -0.710876  0.410424 -2.930149
      ESP Fit Center  588 is at  -0.820848  0.000000 -2.930149
      ESP Fit Center  589 is at  -0.710876 -0.410424 -2.930149
      ESP Fit Center  590 is at   0.710876 -0.410424 -2.930149
      ESP Fit Center  591 is at   0.416756  0.000000 -3.038426
      ESP Fit Center  592 is at   0.208378  0.360921 -3.038426
      ESP Fit Center  593 is at  -0.208378  0.360921 -3.038426
      ESP Fit Center  594 is at  -0.416756  0.000000 -3.038426
      ESP Fit Center  595 is at  -0.208378 -0.360921 -3.038426
      ESP Fit Center  596 is at   0.208378 -0.360921 -3.038426
      ESP Fit Center  597 is at   0.000000  0.000000 -3.074887
      ESP Fit Center  598 is at   0.623586  2.309942 -0.016565
      ESP Fit Center  599 is at   0.213631  2.430315 -0.016565
      ESP Fit Center  600 is at  -0.213631  2.430315 -0.016565
      ESP Fit Center  601 is at  -0.623586  2.309942 -0.016565
      ESP Fit Center  602 is at   1.294819  2.091588 -0.380608
      ESP Fit Center  603 is at   0.982673  2.368125 -0.380608
      ESP Fit Center  604 is at   0.613417  2.561925 -0.380608
      ESP Fit Center  605 is at   0.208512  2.661726 -0.380608
      ESP Fit Center  606 is at  -0.208512  2.661726 -0.380608
      ESP Fit Center  607 is at  -0.613417  2.561925 -0.380608
      ESP Fit Center  608 is at  -0.982673  2.368125 -0.380608
      ESP Fit Center  609 is at  -1.294819  2.091588 -0.380608
      ESP Fit Center  610 is at   1.686489  1.756648 -0.786425
      ESP Fit Center  611 is at   1.463480  2.111565 -0.786425
      ESP Fit Center  612 is at   1.167087  2.407958 -0.786425
      ESP Fit Center  613 is at   0.812170  2.630967 -0.786425
      ESP Fit Center  614 is at   0.416528  2.769408 -0.786425
      ESP Fit Center  615 is at   0.000000  2.816340 -0.786425
      ESP Fit Center  616 is at  -0.416528  2.769408 -0.786425
      ESP Fit Center  617 is at  -0.812170  2.630967 -0.786425
      ESP Fit Center  618 is at  -1.167087  2.407958 -0.786425
      ESP Fit Center  619 is at  -1.463480  2.111565 -0.786425
      ESP Fit Center  620 is at  -1.686489  1.756648 -0.786425
      ESP Fit Center  621 is at   1.742545  1.750665 -1.213665
      ESP Fit Center  622 is at   1.528499  2.106412 -1.213665
      ESP Fit Center  623 is at   1.242982  2.407829 -1.213665
      ESP Fit Center  624 is at   0.899344  2.640821 -1.213665
      ESP Fit Center  625 is at   0.513654  2.794494 -1.213665
      ESP Fit Center  626 is at   0.103947  2.861662 -1.213665
      ESP Fit Center  627 is at  -0.310621  2.839185 -1.213665
      ESP Fit Center  628 is at  -0.710665  2.728113 -1.213665
      ESP Fit Center  629 is at  -1.077479  2.533641 -1.213665
      ESP Fit Center  630 is at  -1.393911  2.264861 -1.213665
      ESP Fit Center  631 is at  -1.645166  1.934341 -1.213665
      ESP Fit Center  632 is at  -1.819494  1.557537 -1.213665
      ESP Fit Center  633 is at   1.824930  1.361006 -1.640905
      ESP Fit Center  634 is at   1.686489  1.756648 -1.640905
      ESP Fit Center  635 is at   1.463480  2.111565 -1.640905
      ESP Fit Center  636 is at   1.167087  2.407958 -1.640905
      ESP Fit Center  637 is at   0.812170  2.630967 -1.640905
      ESP Fit Center  638 is at   0.416528  2.769408 -1.640905
      ESP Fit Center  639 is at   0.000000  2.816340 -1.640905
      ESP Fit Center  640 is at  -0.416528  2.769408 -1.640905
      ESP Fit Center  641 is at  -0.812170  2.630967 -1.640905
      ESP Fit Center  642 is at  -1.167087  2.407958 -1.640905
      ESP Fit Center  643 is at  -1.463480  2.111565 -1.640905
      ESP Fit Center  644 is at  -1.686489  1.756648 -1.640905
      ESP Fit Center  645 is at  -1.824930  1.361006 -1.640905
      ESP Fit Center  646 is at   1.729860  0.944478 -2.046722
      ESP Fit Center  647 is at   1.679594  1.358461 -2.046722
      ESP Fit Center  648 is at   1.531715  1.748384 -2.046722
      ESP Fit Center  649 is at   1.294819  2.091588 -2.046722
      ESP Fit Center  650 is at   0.982673  2.368125 -2.046722
      ESP Fit Center  651 is at   0.613417  2.561925 -2.046722
      ESP Fit Center  652 is at   0.208512  2.661726 -2.046722
      ESP Fit Center  653 is at  -0.208512  2.661726 -2.046722
      ESP Fit Center  654 is at  -0.613417  2.561925 -2.046722
      ESP Fit Center  655 is at  -0.982673  2.368125 -2.046722
      ESP Fit Center  656 is at  -1.294819  2.091588 -2.046722
      ESP Fit Center  657 is at  -1.531715  1.748384 -2.046722
      ESP Fit Center  658 is at  -1.679594  1.358461 -2.046722
      ESP Fit Center  659 is at  -1.729860  0.944478 -2.046722
      ESP Fit Center  660 is at   1.501116  0.944478 -2.410765
      ESP Fit Center  661 is at   1.440311  1.367391 -2.410765
      ESP Fit Center  662 is at   1.262820  1.756043 -2.410765
      ESP Fit Center  663 is at   0.983022  2.078946 -2.410765
      ESP Fit Center  664 is at   0.623586  2.309942 -2.410765
      ESP Fit Center  665 is at   0.213631  2.430315 -2.410765
      ESP Fit Center  666 is at  -0.213631  2.430315 -2.410765
      ESP Fit Center  667 is at  -0.623586  2.309942 -2.410765
      ESP Fit Center  668 is at  -0.983022  2.078946 -2.410765
      ESP Fit Center  669 is at  -1.262820  1.756043 -2.410765
      ESP Fit Center  670 is at  -1.440311  1.367391 -2.410765
      ESP Fit Center  671 is at  -1.501116  0.944478 -2.410765
      ESP Fit Center  672 is at   1.197100  0.944478 -2.714781
      ESP Fit Center  673 is at   1.124906  1.353910 -2.714781
      ESP Fit Center  674 is at   0.917032  1.713959 -2.714781
      ESP Fit Center  675 is at   0.598550  1.981197 -2.714781
      ESP Fit Center  676 is at   0.207874  2.123392 -2.714781
      ESP Fit Center  677 is at  -0.207874  2.123392 -2.714781
      ESP Fit Center  678 is at  -0.598550  1.981197 -2.714781
      ESP Fit Center  679 is at  -0.917032  1.713959 -2.714781
      ESP Fit Center  680 is at  -1.124906  1.353910 -2.714781
      ESP Fit Center  681 is at  -1.197100  0.944478 -2.714781
      ESP Fit Center  682 is at   0.833057  0.944478 -2.943525
      ESP Fit Center  683 is at   0.721448  1.361006 -2.943525
      ESP Fit Center  684 is at   0.416528  1.665926 -2.943525
      ESP Fit Center  685 is at   0.000000  1.777535 -2.943525
      ESP Fit Center  686 is at  -0.416528  1.665926 -2.943525
      ESP Fit Center  687 is at  -0.721448  1.361006 -2.943525
      ESP Fit Center  688 is at  -0.833057  0.944478 -2.943525
      ESP Fit Center  689 is at  -0.721448  0.527950 -2.943525
      ESP Fit Center  690 is at   0.721448  0.527950 -2.943525
      ESP Fit Center  691 is at   0.427240  0.944478 -3.085527
      ESP Fit Center  692 is at   0.213620  1.314479 -3.085527
      ESP Fit Center  693 is at  -0.213620  1.314479 -3.085527
      ESP Fit Center  694 is at  -0.427240  0.944478 -3.085527
      ESP Fit Center  695 is at  -0.213620  0.574477 -3.085527
      ESP Fit Center  696 is at   0.213620  0.574477 -3.085527
      ESP Fit Center  697 is at   0.000000  0.944478 -3.133665
      ESP Fit Center  698 is at  -0.623586 -2.309942 -0.016565
      ESP Fit Center  699 is at  -0.213631 -2.430315 -0.016565
      ESP Fit Center  700 is at   0.213631 -2.430315 -0.016565
      ESP Fit Center  701 is at   0.623586 -2.309942 -0.016565
      ESP Fit Center  702 is at  -1.294819 -2.091588 -0.380608
      ESP Fit Center  703 is at  -0.982673 -2.368125 -0.380608
      ESP Fit Center  704 is at  -0.613417 -2.561925 -0.380608
      ESP Fit Center  705 is at  -0.208512 -2.661726 -0.380608
      ESP Fit Center  706 is at   0.208512 -2.661726 -0.380608
      ESP Fit Center  707 is at   0.613417 -2.561925 -0.380608
      ESP Fit Center  708 is at   0.982673 -2.368125 -0.380608
      ESP Fit Center  709 is at   1.294819 -2.091588 -0.380608
      ESP Fit Center  710 is at  -1.686489 -1.756648 -0.786425
      ESP Fit Center  711 is at  -1.463480 -2.111565 -0.786425
      ESP Fit Center  712 is at  -1.167087 -2.407958 -0.786425
      ESP Fit Center  713 is at  -0.812170 -2.630967 -0.786425
      ESP Fit Center  714 is at  -0.416528 -2.769408 -0.786425
      ESP Fit Center  715 is at   0.000000 -2.816340 -0.786425
      ESP Fit Center  716 is at   0.416528 -2.769408 -0.786425
      ESP Fit Center  717 is at   0.812170 -2.630967 -0.786425
      ESP Fit Center  718 is at   1.167087 -2.407958 -0.786425
      ESP Fit Center  719 is at   1.463480 -2.111565 -0.786425
      ESP Fit Center  720 is at   1.686489 -1.756648 -0.786425
      ESP Fit Center  721 is at  -1.819494 -1.557537 -1.213665
      ESP Fit Center  722 is at  -1.645166 -1.934341 -1.213665
      ESP Fit Center  723 is at  -1.393911 -2.264861 -1.213665
      ESP Fit Center  724 is at  -1.077479 -2.533641 -1.213665
      ESP Fit Center  725 is at  -0.710665 -2.728113 -1.213665
      ESP Fit Center  726 is at  -0.310621 -2.839185 -1.213665
      ESP Fit Center  727 is at   0.103947 -2.861662 -1.213665
      ESP Fit Center  728 is at   0.513654 -2.794494 -1.213665
      ESP Fit Center  729 is at   0.899344 -2.640821 -1.213665
      ESP Fit Center  730 is at   1.242982 -2.407829 -1.213665
      ESP Fit Center  731 is at   1.528499 -2.106412 -1.213665
      ESP Fit Center  732 is at   1.742545 -1.750665 -1.213665
      ESP Fit Center  733 is at  -1.824930 -1.361006 -1.640905
      ESP Fit Center  734 is at  -1.686489 -1.756648 -1.640905
      ESP Fit Center  735 is at  -1.463480 -2.111565 -1.640905
      ESP Fit Center  736 is at  -1.167087 -2.407958 -1.640905
      ESP Fit Center  737 is at  -0.812170 -2.630967 -1.640905
      ESP Fit Center  738 is at  -0.416528 -2.769408 -1.640905
      ESP Fit Center  739 is at   0.000000 -2.816340 -1.640905
      ESP Fit Center  740 is at   0.416528 -2.769408 -1.640905
      ESP Fit Center  741 is at   0.812170 -2.630967 -1.640905
      ESP Fit Center  742 is at   1.167087 -2.407958 -1.640905
      ESP Fit Center  743 is at   1.463480 -2.111565 -1.640905
      ESP Fit Center  744 is at   1.686489 -1.756648 -1.640905
      ESP Fit Center  745 is at   1.824930 -1.361006 -1.640905
      ESP Fit Center  746 is at   1.729860 -0.944478 -2.046722
      ESP Fit Center  747 is at  -1.729860 -0.944478 -2.046722
      ESP Fit Center  748 is at  -1.679594 -1.358461 -2.046722
      ESP Fit Center  749 is at  -1.531715 -1.748384 -2.046722
      ESP Fit Center  750 is at  -1.294819 -2.091588 -2.046722
      ESP Fit Center  751 is at  -0.982673 -2.368125 -2.046722
      ESP Fit Center  752 is at  -0.613417 -2.561925 -2.046722
      ESP Fit Center  753 is at  -0.208512 -2.661726 -2.046722
      ESP Fit Center  754 is at   0.208512 -2.661726 -2.046722
      ESP Fit Center  755 is at   0.613417 -2.561925 -2.046722
      ESP Fit Center  756 is at   0.982673 -2.368125 -2.046722
      ESP Fit Center  757 is at   1.294819 -2.091588 -2.046722
      ESP Fit Center  758 is at   1.531715 -1.748384 -2.046722
      ESP Fit Center  759 is at   1.679594 -1.358461 -2.046722
      ESP Fit Center  760 is at   1.501116 -0.944478 -2.410765
      ESP Fit Center  761 is at  -1.501116 -0.944478 -2.410765
      ESP Fit Center  762 is at  -1.440311 -1.367391 -2.410765
      ESP Fit Center  763 is at  -1.262820 -1.756043 -2.410765
      ESP Fit Center  764 is at  -0.983022 -2.078946 -2.410765
      ESP Fit Center  765 is at  -0.623586 -2.309942 -2.410765
      ESP Fit Center  766 is at  -0.213631 -2.430315 -2.410765
      ESP Fit Center  767 is at   0.213631 -2.430315 -2.410765
      ESP Fit Center  768 is at   0.623586 -2.309942 -2.410765
      ESP Fit Center  769 is at   0.983022 -2.078946 -2.410765
      ESP Fit Center  770 is at   1.262820 -1.756043 -2.410765
      ESP Fit Center  771 is at   1.440311 -1.367391 -2.410765
      ESP Fit Center  772 is at   1.197100 -0.944478 -2.714781
      ESP Fit Center  773 is at  -1.197100 -0.944478 -2.714781
      ESP Fit Center  774 is at  -1.124906 -1.353910 -2.714781
      ESP Fit Center  775 is at  -0.917032 -1.713959 -2.714781
      ESP Fit Center  776 is at  -0.598550 -1.981197 -2.714781
      ESP Fit Center  777 is at  -0.207874 -2.123392 -2.714781
      ESP Fit Center  778 is at   0.207874 -2.123392 -2.714781
      ESP Fit Center  779 is at   0.598550 -1.981197 -2.714781
      ESP Fit Center  780 is at   0.917032 -1.713959 -2.714781
      ESP Fit Center  781 is at   1.124906 -1.353910 -2.714781
      ESP Fit Center  782 is at   0.833057 -0.944478 -2.943525
      ESP Fit Center  783 is at   0.721448 -0.527950 -2.943525
      ESP Fit Center  784 is at  -0.721448 -0.527950 -2.943525
      ESP Fit Center  785 is at  -0.833057 -0.944478 -2.943525
      ESP Fit Center  786 is at  -0.721448 -1.361006 -2.943525
      ESP Fit Center  787 is at  -0.416528 -1.665926 -2.943525
      ESP Fit Center  788 is at   0.000000 -1.777535 -2.943525
      ESP Fit Center  789 is at   0.416528 -1.665926 -2.943525
      ESP Fit Center  790 is at   0.721448 -1.361006 -2.943525
      ESP Fit Center  791 is at   0.427240 -0.944478 -3.085527
      ESP Fit Center  792 is at   0.213620 -0.574477 -3.085527
      ESP Fit Center  793 is at  -0.213620 -0.574477 -3.085527
      ESP Fit Center  794 is at  -0.427240 -0.944478 -3.085527
      ESP Fit Center  795 is at  -0.213620 -1.314479 -3.085527
      ESP Fit Center  796 is at   0.213620 -1.314479 -3.085527
      ESP Fit Center  797 is at   0.000000 -0.944478 -3.133665
      ESP Fit Center  798 is at   0.000000  0.000000  2.999636
      ESP Fit Center  799 is at   0.416756  0.000000  2.963175
      ESP Fit Center  800 is at  -0.416756  0.000000  2.963175
      ESP Fit Center  801 is at   0.820848  0.000000  2.854898
      ESP Fit Center  802 is at  -0.820848  0.000000  2.854898
      ESP Fit Center  803 is at   1.200000  0.000000  2.678097
      ESP Fit Center  804 is at   1.127631  0.410424  2.678097
      ESP Fit Center  805 is at  -1.127631  0.410424  2.678097
      ESP Fit Center  806 is at  -1.200000  0.000000  2.678097
      ESP Fit Center  807 is at  -1.127631 -0.410424  2.678097
      ESP Fit Center  808 is at   1.127631 -0.410424  2.678097
      ESP Fit Center  809 is at   1.542690  0.000000  2.438143
      ESP Fit Center  810 is at   1.485483  0.416213  2.438143
      ESP Fit Center  811 is at  -1.414973  0.614609  2.438143
      ESP Fit Center  812 is at  -1.528322  0.210063  2.438143
      ESP Fit Center  813 is at  -1.528322 -0.210063  2.438143
      ESP Fit Center  814 is at  -1.414973 -0.614609  2.438143
      ESP Fit Center  815 is at   1.485483 -0.416213  2.438143
      ESP Fit Center  816 is at   1.838507  0.000000  2.142326
      ESP Fit Center  817 is at   1.788949  0.423989  2.142326
      ESP Fit Center  818 is at   1.642950  0.825120  2.142326
      ESP Fit Center  819 is at  -1.727631  0.628806  2.142326
      ESP Fit Center  820 is at  -1.826075  0.213438  2.142326
      ESP Fit Center  821 is at  -1.826075 -0.213438  2.142326
      ESP Fit Center  822 is at  -1.727631 -0.628806  2.142326
      ESP Fit Center  823 is at   1.642950 -0.825120  2.142326
      ESP Fit Center  824 is at   1.788949 -0.423989  2.142326
      ESP Fit Center  825 is at   2.078461  0.000000  1.799636
      ESP Fit Center  826 is at   2.035915  0.418391  1.799636
      ESP Fit Center  827 is at   1.910018  0.819653  1.799636
      ESP Fit Center  828 is at  -1.817295  1.008681  1.799636
      ESP Fit Center  829 is at  -1.983141  0.622215  1.799636
      ESP Fit Center  830 is at  -2.067797  0.210274  1.799636
      ESP Fit Center  831 is at  -2.067797 -0.210274  1.799636
      ESP Fit Center  832 is at  -1.983141 -0.622215  1.799636
      ESP Fit Center  833 is at  -1.817295 -1.008681  1.799636
      ESP Fit Center  834 is at   1.910018 -0.819653  1.799636
      ESP Fit Center  835 is at   2.035915 -0.418391  1.799636
      ESP Fit Center  836 is at   2.255262  0.000000  1.420484
      ESP Fit Center  837 is at   2.214507  0.426811  1.420484
      ESP Fit Center  838 is at   2.093713  0.838196  1.420484
      ESP Fit Center  839 is at   1.897247  1.219287  1.420484
      ESP Fit Center  840 is at  -2.004557  1.033421  1.420484
      ESP Fit Center  841 is at  -2.163908  0.635381  1.420484
      ESP Fit Center  842 is at  -2.245050  0.214376  1.420484
      ESP Fit Center  843 is at  -2.245050 -0.214376  1.420484
      ESP Fit Center  844 is at  -2.163908 -0.635381  1.420484
      ESP Fit Center  845 is at  -2.004557 -1.033421  1.420484
      ESP Fit Center  846 is at   1.897247 -1.219287  1.420484
      ESP Fit Center  847 is at   2.093713 -0.838196  1.420484
      ESP Fit Center  848 is at   2.214507 -0.426811  1.420484
      ESP Fit Center  849 is at   2.363539  0.000000  1.016392
      ESP Fit Center  850 is at   2.325556  0.422026  1.016392
      ESP Fit Center  851 is at   2.212827  0.830488  1.016392
      ESP Fit Center  852 is at   2.028977  1.212257  1.016392
      ESP Fit Center  853 is at  -1.912143  1.389253  1.016392
      ESP Fit Center  854 is at  -2.129475  1.025501  1.016392
      ESP Fit Center  855 is at  -2.278363  0.628788  1.016392
      ESP Fit Center  856 is at  -2.354024  0.211866  1.016392
      ESP Fit Center  857 is at  -2.354024 -0.211866  1.016392
      ESP Fit Center  858 is at  -2.278363 -0.628788  1.016392
      ESP Fit Center  859 is at  -2.129475 -1.025501  1.016392
      ESP Fit Center  860 is at  -1.912143 -1.389253  1.016392
      ESP Fit Center  861 is at   2.028977 -1.212257  1.016392
      ESP Fit Center  862 is at   2.212827 -0.830488  1.016392
      ESP Fit Center  863 is at   2.325556 -0.422026  1.016392
      ESP Fit Center  864 is at   2.400000  0.000000  0.599636
      ESP Fit Center  865 is at   2.363539  0.416756  0.599636
      ESP Fit Center  866 is at   2.255262  0.820848  0.599636
      ESP Fit Center  867 is at   2.078461  1.200000  0.599636
      ESP Fit Center  868 is at   1.838507  1.542690  0.599636
      ESP Fit Center  869 is at  -1.838507  1.542690  0.599636
      ESP Fit Center  870 is at  -2.078461  1.200000  0.599636
      ESP Fit Center  871 is at  -2.255262  0.820848  0.599636
      ESP Fit Center  872 is at  -2.363539  0.416756  0.599636
      ESP Fit Center  873 is at  -2.400000  0.000000  0.599636
      ESP Fit Center  874 is at  -2.363539 -0.416756  0.599636
      ESP Fit Center  875 is at  -2.255262 -0.820848  0.599636
      ESP Fit Center  876 is at  -2.078461 -1.200000  0.599636
      ESP Fit Center  877 is at  -1.838507 -1.542690  0.599636
      ESP Fit Center  878 is at   1.838507 -1.542690  0.599636
      ESP Fit Center  879 is at   2.078461 -1.200000  0.599636
      ESP Fit Center  880 is at   2.255262 -0.820848  0.599636
      ESP Fit Center  881 is at   2.363539 -0.416756  0.599636
      ESP Fit Center  882 is at   2.363539  0.000000  0.182880
      ESP Fit Center  883 is at   2.325556  0.422026  0.182880
      ESP Fit Center  884 is at   2.212827  0.830488  0.182880
      ESP Fit Center  885 is at   2.028977  1.212257  0.182880
      ESP Fit Center  886 is at   1.779913  1.555064  0.182880
      ESP Fit Center  887 is at   1.473642  1.847889  0.182880
      ESP Fit Center  888 is at  -1.302066  1.972546  0.182880
      ESP Fit Center  889 is at  -1.633353  1.708354  0.182880
      ESP Fit Center  890 is at  -1.912143  1.389253  0.182880
      ESP Fit Center  891 is at  -2.129475  1.025501  0.182880
      ESP Fit Center  892 is at  -2.278363  0.628788  0.182880
      ESP Fit Center  893 is at  -2.354024  0.211866  0.182880
      ESP Fit Center  894 is at  -2.354024 -0.211866  0.182880
      ESP Fit Center  895 is at  -2.278363 -0.628788  0.182880
      ESP Fit Center  896 is at  -2.129475 -1.025501  0.182880
      ESP Fit Center  897 is at  -1.912143 -1.389253  0.182880
      ESP Fit Center  898 is at  -1.633353 -1.708354  0.182880
      ESP Fit Center  899 is at  -1.302066 -1.972546  0.182880
      ESP Fit Center  900 is at   1.473642 -1.847889  0.182880
      ESP Fit Center  901 is at   1.779913 -1.555064  0.182880
      ESP Fit Center  902 is at   2.028977 -1.212257  0.182880
      ESP Fit Center  903 is at   2.212827 -0.830488  0.182880
      ESP Fit Center  904 is at   2.325556 -0.422026  0.182880
      ESP Fit Center  905 is at   0.000000  0.867464  3.059600
      ESP Fit Center  906 is at   0.427240  0.867464  3.011462
      ESP Fit Center  907 is at   0.213620  1.237465  3.011462
      ESP Fit Center  908 is at  -0.213620  1.237465  3.011462
      ESP Fit Center  909 is at  -0.427240  0.867464  3.011462
      ESP Fit Center  910 is at  -0.213620  0.497463  3.011462
      ESP Fit Center  911 is at   0.213620  0.497463  3.011462
      ESP Fit Center  912 is at   0.833057  0.867464  2.869460
      ESP Fit Center  913 is at   0.721448  1.283992  2.869460
      ESP Fit Center  914 is at   0.416528  1.588912  2.869460
      ESP Fit Center  915 is at   0.000000  1.700521  2.869460
      ESP Fit Center  916 is at  -0.416528  1.588912  2.869460
      ESP Fit Center  917 is at  -0.721448  1.283992  2.869460
      ESP Fit Center  918 is at  -0.833057  0.867464  2.869460
      ESP Fit Center  919 is at  -0.721448  0.450936  2.869460
      ESP Fit Center  920 is at   0.721448  0.450936  2.869460
      ESP Fit Center  921 is at   1.197100  0.867464  2.640716
      ESP Fit Center  922 is at   1.124906  1.276896  2.640716
      ESP Fit Center  923 is at   0.917032  1.636945  2.640716
      ESP Fit Center  924 is at   0.598550  1.904183  2.640716
      ESP Fit Center  925 is at   0.207874  2.046378  2.640716
      ESP Fit Center  926 is at  -0.207874  2.046378  2.640716
      ESP Fit Center  927 is at  -0.598550  1.904183  2.640716
      ESP Fit Center  928 is at  -0.917032  1.636945  2.640716
      ESP Fit Center  929 is at  -1.124906  1.276896  2.640716
      ESP Fit Center  930 is at  -1.197100  0.867464  2.640716
      ESP Fit Center  931 is at   1.501116  0.867464  2.336700
      ESP Fit Center  932 is at   1.440311  1.290377  2.336700
      ESP Fit Center  933 is at   1.262820  1.679029  2.336700
      ESP Fit Center  934 is at   0.983022  2.001932  2.336700
      ESP Fit Center  935 is at   0.623586  2.232928  2.336700
      ESP Fit Center  936 is at   0.213631  2.353301  2.336700
      ESP Fit Center  937 is at  -0.213631  2.353301  2.336700
      ESP Fit Center  938 is at  -0.623586  2.232928  2.336700
      ESP Fit Center  939 is at  -0.983022  2.001932  2.336700
      ESP Fit Center  940 is at  -1.262820  1.679029  2.336700
      ESP Fit Center  941 is at  -1.440311  1.290377  2.336700
      ESP Fit Center  942 is at  -1.501116  0.867464  2.336700
      ESP Fit Center  943 is at   1.679594  1.281447  1.972657
      ESP Fit Center  944 is at   1.531715  1.671370  1.972657
      ESP Fit Center  945 is at   1.294819  2.014574  1.972657
      ESP Fit Center  946 is at   0.982673  2.291111  1.972657
      ESP Fit Center  947 is at   0.613417  2.484911  1.972657
      ESP Fit Center  948 is at   0.208512  2.584712  1.972657
      ESP Fit Center  949 is at  -0.208512  2.584712  1.972657
      ESP Fit Center  950 is at  -0.613417  2.484911  1.972657
      ESP Fit Center  951 is at  -0.982673  2.291111  1.972657
      ESP Fit Center  952 is at  -1.294819  2.014574  1.972657
      ESP Fit Center  953 is at  -1.531715  1.671370  1.972657
      ESP Fit Center  954 is at  -1.679594  1.281447  1.972657
      ESP Fit Center  955 is at   1.824930  1.283992  1.566840
      ESP Fit Center  956 is at   1.686489  1.679634  1.566840
      ESP Fit Center  957 is at   1.463480  2.034551  1.566840
      ESP Fit Center  958 is at   1.167087  2.330944  1.566840
      ESP Fit Center  959 is at   0.812170  2.553953  1.566840
      ESP Fit Center  960 is at   0.416528  2.692394  1.566840
[...]
 1953 Fit       0.153864
 1954 Fit       0.152584
 1955 Fit       0.151828
 1956 Fit       0.151418
 1957 Fit       0.151689
 1958 Fit       0.152511
 1959 Fit       0.153898
 1960 Fit       0.153134
 1961 Fit       0.152031
 1962 Fit       0.151486
 1963 Fit       0.151486
 1964 Fit       0.152031
 1965 Fit       0.153134
 1966 Fit       0.153898
 1967 Fit       0.152511
 1968 Fit       0.151689
 1969 Fit       0.151422
 1970 Fit       0.151728
 1971 Fit       0.152650
 1972 Fit       0.153342
 1973 Fit       0.152112
 1974 Fit       0.151498
 1975 Fit       0.151498
 1976 Fit       0.152112
 1977 Fit       0.153342
 1978 Fit       0.152650
 1979 Fit       0.151728
 1980 Fit       0.151548
 1981 Fit       0.151880
 1982 Fit       0.152868
 1983 Fit       0.153594
 1984 Fit       0.152294
 1985 Fit       0.151631
 1986 Fit       0.151631
 1987 Fit       0.152294
 1988 Fit       0.153594
 1989 Fit       0.152868
 1990 Fit       0.151880
 1991 Fit       0.151749
 1992 Fit       0.152147
 1993 Fit       0.153291
 1994 Fit       0.152634
 1995 Fit       0.151850
 1996 Fit       0.151850
 1997 Fit       0.152634
 1998 Fit       0.153291
 1999 Fit       0.152147
 2000 Fit       0.151979
 2001 Fit       0.152393
 2002 Fit       0.153500
 2003 Fit       0.153500
 2004 Fit       0.152393
 2005 Fit       0.151979
 2006 Fit       0.152393
 2007 Fit       0.153500
 2008 Fit       0.153500
 2009 Fit       0.152393
 2010 Fit       0.152187
 2011 Fit       0.152623
 2012 Fit       0.152623
 2013 Fit       0.152187
 2014 Fit       0.152623
 2015 Fit       0.152623
 2016 Fit       0.152331
 2017 Fit       0.152679
 2018 Fit       0.152679
 2019 Fit       0.152331
 2020 Fit       0.152679
 2021 Fit       0.152679
 2022 Fit       0.152383
 2023 Fit       0.175796
 2024 Fit       0.175324
 2025 Fit       0.175232
 2026 Fit       0.175511
 2027 Fit       0.176187
 2028 Fit       0.166787
 2029 Fit       0.165717
 2030 Fit       0.165079
 2031 Fit       0.164816
 2032 Fit       0.164903
 2033 Fit       0.165348
 2034 Fit       0.166192
 2035 Fit       0.167513
 2036 Fit       0.161486
 2037 Fit       0.159778
 2038 Fit       0.158592
 2039 Fit       0.157829
 2040 Fit       0.157424
 2041 Fit       0.157345
 2042 Fit       0.157584
 2043 Fit       0.158162
 2044 Fit       0.159126
 2045 Fit       0.160559
 2046 Fit       0.162579
 2047 Fit       0.158641
 2048 Fit       0.156283
 2049 Fit       0.154559
 2050 Fit       0.153340
 2051 Fit       0.152530
 2052 Fit       0.152069
 2053 Fit       0.151919
 2054 Fit       0.152069
 2055 Fit       0.152530
 2056 Fit       0.153340
 2057 Fit       0.154559
 2058 Fit       0.156283
 2059 Fit       0.158641
 2060 Fit       0.154327
 2061 Fit       0.152059
 2062 Fit       0.150407
 2063 Fit       0.149251
 2064 Fit       0.148502
 2065 Fit       0.148105
 2066 Fit       0.148027
 2067 Fit       0.148262
 2068 Fit       0.148830
 2069 Fit       0.149773
 2070 Fit       0.151164
 2071 Fit       0.153107
 2072 Fit       0.155740
 2073 Fit       0.153759
 2074 Fit       0.150880
 2075 Fit       0.148750
 2076 Fit       0.147222
 2077 Fit       0.146185
 2078 Fit       0.145561
 2079 Fit       0.145303
 2080 Fit       0.145388
 2081 Fit       0.145825
 2082 Fit       0.146648
 2083 Fit       0.147918
 2084 Fit       0.149731
 2085 Fit       0.152216
 2086 Fit       0.155535
 2087 Fit       0.154550
 2088 Fit       0.151026
 2089 Fit       0.148357
 2090 Fit       0.146395
 2091 Fit       0.145013
 2092 Fit       0.144116
 2093 Fit       0.143638
 2094 Fit       0.143545
 2095 Fit       0.143828
 2096 Fit       0.144509
 2097 Fit       0.145638
 2098 Fit       0.147296
 2099 Fit       0.149594
 2100 Fit       0.152671
 2101 Fit       0.151995
 2102 Fit       0.148669
 2103 Fit       0.146207
 2104 Fit       0.144471
 2105 Fit       0.143345
 2106 Fit       0.142747
 2107 Fit       0.142630
 2108 Fit       0.142984
 2109 Fit       0.143838
 2110 Fit       0.145256
 2111 Fit       0.147339
 2112 Fit       0.150215
 2113 Fit       0.154028
 2114 Fit       0.150103
 2115 Fit       0.147030
 2116 Fit       0.144838
 2117 Fit       0.143408
 2118 Fit       0.142648
 2119 Fit       0.142499
 2120 Fit       0.142949
 2121 Fit       0.144034
 2122 Fit       0.145831
 2123 Fit       0.148449
 2124 Fit       0.152002
 2125 Fit       0.152528
 2126 Fit       0.148678
 2127 Fit       0.145883
 2128 Fit       0.144095
 2129 Fit       0.143230
 2130 Fit       0.143230
 2131 Fit       0.144095
 2132 Fit       0.145883
 2133 Fit       0.148678
 2134 Fit       0.152528
 2135 Fit       0.151399
 2136 Fit       0.147654
 2137 Fit       0.145357
 2138 Fit       0.144594
 2139 Fit       0.145357
 2140 Fit       0.147654
 2141 Fit       0.151399
 2142 Fit       0.150735
 2143 Fit       0.147456
 2144 Fit       0.147456
 2145 Fit       0.150735
 2146 Fit       0.150516
 2147 Fit       0.176187
 2148 Fit       0.175511
 2149 Fit       0.175232
 2150 Fit       0.175324
 2151 Fit       0.175796
 2152 Fit       0.167513
 2153 Fit       0.166192
 2154 Fit       0.165348
 2155 Fit       0.164903
 2156 Fit       0.164816
 2157 Fit       0.165079
 2158 Fit       0.165717
 2159 Fit       0.166787
 2160 Fit       0.162579
 2161 Fit       0.160559
 2162 Fit       0.159126
 2163 Fit       0.158162
 2164 Fit       0.157584
 2165 Fit       0.157345
 2166 Fit       0.157424
 2167 Fit       0.157829
 2168 Fit       0.158592
 2169 Fit       0.159778
 2170 Fit       0.161486
 2171 Fit       0.158641
 2172 Fit       0.156283
 2173 Fit       0.154559
 2174 Fit       0.153340
 2175 Fit       0.152530
 2176 Fit       0.152069
 2177 Fit       0.151919
 2178 Fit       0.152069
 2179 Fit       0.152530
 2180 Fit       0.153340
 2181 Fit       0.154559
 2182 Fit       0.156283
 2183 Fit       0.158641
 2184 Fit       0.155740
 2185 Fit       0.153107
 2186 Fit       0.151164
 2187 Fit       0.149773
 2188 Fit       0.148830
 2189 Fit       0.148262
 2190 Fit       0.148027
 2191 Fit       0.148105
 2192 Fit       0.148502
 2193 Fit       0.149251
 2194 Fit       0.150407
 2195 Fit       0.152059
 2196 Fit       0.154327
 2197 Fit       0.155535
 2198 Fit       0.152216
 2199 Fit       0.149731
 2200 Fit       0.147918
 2201 Fit       0.146648
 2202 Fit       0.145825
 2203 Fit       0.145388
 2204 Fit       0.145303
 2205 Fit       0.145561
 2206 Fit       0.146185
 2207 Fit       0.147222
 2208 Fit       0.148750
 2209 Fit       0.150880
 2210 Fit       0.153759
 2211 Fit       0.152671
 2212 Fit       0.149594
 2213 Fit       0.147296
 2214 Fit       0.145638
 2215 Fit       0.144509
 2216 Fit       0.143828
 2217 Fit       0.143545
 2218 Fit       0.143638
 2219 Fit       0.144116
 2220 Fit       0.145013
 2221 Fit       0.146395
 2222 Fit       0.148357
 2223 Fit       0.151026
 2224 Fit       0.154550
 2225 Fit       0.154028
 2226 Fit       0.150215
 2227 Fit       0.147339
 2228 Fit       0.145256
 2229 Fit       0.143838
 2230 Fit       0.142984
 2231 Fit       0.142630
 2232 Fit       0.142747
 2233 Fit       0.143345
 2234 Fit       0.144471
 2235 Fit       0.146207
 2236 Fit       0.148669
 2237 Fit       0.151995
 2238 Fit       0.152002
 2239 Fit       0.148449
 2240 Fit       0.145831
 2241 Fit       0.144034
 2242 Fit       0.142949
 2243 Fit       0.142499
 2244 Fit       0.142648
 2245 Fit       0.143408
 2246 Fit       0.144838
 2247 Fit       0.147030
 2248 Fit       0.150103
 2249 Fit       0.152528
 2250 Fit       0.152528
 2251 Fit       0.148678
 2252 Fit       0.145883
 2253 Fit       0.144095
 2254 Fit       0.143230
 2255 Fit       0.143230
 2256 Fit       0.144095
 2257 Fit       0.145883
 2258 Fit       0.148678
 2259 Fit       0.151399
 2260 Fit       0.151399
 2261 Fit       0.147654
 2262 Fit       0.145357
 2263 Fit       0.144594
 2264 Fit       0.145357
 2265 Fit       0.147654
 2266 Fit       0.150735
 2267 Fit       0.150735
 2268 Fit       0.147456
 2269 Fit       0.147456
 2270 Fit       0.150516
 2271 Fit       0.158150
 2272 Fit       0.157887
 2273 Fit       0.158474
 2274 Fit       0.158474
 2275 Fit       0.157887
 2276 Fit       0.158474
 2277 Fit       0.158474
 2278 Fit       0.157125
 2279 Fit       0.157869
 2280 Fit       0.157869
 2281 Fit       0.157125
 2282 Fit       0.157869
 2283 Fit       0.157869
 2284 Fit       0.155947
 2285 Fit       0.156666
 2286 Fit       0.156666
 2287 Fit       0.155947
 2288 Fit       0.156666
 2289 Fit       0.156666
 2290 Fit       0.154483
 2291 Fit       0.155190
 2292 Fit       0.157171
 2293 Fit       0.156041
 2294 Fit       0.154662
 2295 Fit       0.154662
 2296 Fit       0.156041
 2297 Fit       0.157171
 2298 Fit       0.155190
 2299 Fit       0.152889
 2300 Fit       0.153496
 2301 Fit       0.155257
 2302 Fit       0.156514
 2303 Fit       0.154241
 2304 Fit       0.153042
 2305 Fit       0.153042
 2306 Fit       0.154241
 2307 Fit       0.156514
 2308 Fit       0.155257
 2309 Fit       0.153496
 2310 Fit       0.151343
 2311 Fit       0.151917
 2312 Fit       0.153603
 2313 Fit       0.156285
 2314 Fit       0.154831
 2315 Fit       0.152626
 2316 Fit       0.151487
 2317 Fit       0.151487
 2318 Fit       0.152626
 2319 Fit       0.154831
 2320 Fit       0.156285
 2321 Fit       0.153603
 2322 Fit       0.151917
 2323 Fit       0.150026
 2324 Fit       0.150544
 2325 Fit       0.152077
 2326 Fit       0.154557
 2327 Fit       0.156113
 2328 Fit       0.153205
 2329 Fit       0.151186
 2330 Fit       0.150156
 2331 Fit       0.150156
 2332 Fit       0.151186
 2333 Fit       0.153205
 2334 Fit       0.156113
 2335 Fit       0.154557
 2336 Fit       0.152077
 2337 Fit       0.150544
 2338 Fit       0.149121
 2339 Fit       0.149596
 2340 Fit       0.151008
 2341 Fit       0.153311
 2342 Fit       0.156409
 2343 Fit       0.156409
 2344 Fit       0.153311
 2345 Fit       0.151008
 2346 Fit       0.149596
 2347 Fit       0.149121
 2348 Fit       0.149596
 2349 Fit       0.151008
 2350 Fit       0.153311
 2351 Fit       0.156409
 2352 Fit       0.156409
 2353 Fit       0.153311
 2354 Fit       0.151008
 2355 Fit       0.149596
 2356 Fit       0.148804
 2357 Fit       0.149227
 2358 Fit       0.150488
 2359 Fit       0.152551
 2360 Fit       0.155347
 2361 Fit       0.156985
 2362 Fit       0.153863
 2363 Fit       0.151422
 2364 Fit       0.149754
 2365 Fit       0.148910
 2366 Fit       0.148910
 2367 Fit       0.149754
 2368 Fit       0.151422
 2369 Fit       0.153863
 2370 Fit       0.156985
 2371 Fit       0.155347
 2372 Fit       0.152551
 2373 Fit       0.150488
 2374 Fit       0.149227
 2375 Fit       0.149250
 2376 Fit       0.149636
 2377 Fit       0.150785
 2378 Fit       0.152668
 2379 Fit       0.155227
 2380 Fit       0.158360
 2381 Fit       0.160095
 2382 Fit       0.156730
 2383 Fit       0.153868
 2384 Fit       0.151638
 2385 Fit       0.150117
 2386 Fit       0.149347
 2387 Fit       0.149347
 2388 Fit       0.150117
 2389 Fit       0.151638
 2390 Fit       0.153868
 2391 Fit       0.156730
 2392 Fit       0.160095
 2393 Fit       0.158360
 2394 Fit       0.155227
 2395 Fit       0.152668
 2396 Fit       0.150785
 2397 Fit       0.149636
 2398 Fit       0.150632
 2399 Fit       0.151009
 2400 Fit       0.152129
 2401 Fit       0.153961
 2402 Fit       0.156447
 2403 Fit       0.159481
 2404 Fit       0.162907
 2405 Fit       0.161158
 2406 Fit       0.157904
 2407 Fit       0.155128
 2408 Fit       0.152959
 2409 Fit       0.151477
 2410 Fit       0.150726
 2411 Fit       0.150726
 2412 Fit       0.151477
 2413 Fit       0.152959
 2414 Fit       0.155128
 2415 Fit       0.157904
 2416 Fit       0.161158
 2417 Fit       0.162907
 2418 Fit       0.159481
 2419 Fit       0.156447
 2420 Fit       0.153961
 2421 Fit       0.152129
 2422 Fit       0.151009
 2423 Fit       0.153124
 2424 Fit       0.153485
 2425 Fit       0.154557
 2426 Fit       0.156311
 2427 Fit       0.158688
 2428 Fit       0.161587
 2429 Fit       0.164854
 2430 Fit       0.168265
 2431 Fit       0.169937
 2432 Fit       0.166558
 2433 Fit       0.163187
 2434 Fit       0.160080
 2435 Fit       0.157427
 2436 Fit       0.155352
 2437 Fit       0.153933
 2438 Fit       0.153214
 2439 Fit       0.153214
 2440 Fit       0.153933
 2441 Fit       0.155352
 2442 Fit       0.157427
 2443 Fit       0.160080
 2444 Fit       0.163187
 2445 Fit       0.166558
 2446 Fit       0.169937
 2447 Fit       0.168265
 2448 Fit       0.164854
 2449 Fit       0.161587
 2450 Fit       0.158688
 2451 Fit       0.156311
 2452 Fit       0.154557
 2453 Fit       0.153485
 2454 Fit       0.156900
 2455 Fit       0.157240
 2456 Fit       0.158253
 2457 Fit       0.159914
 2458 Fit       0.162173
 2459 Fit       0.164940
 2460 Fit       0.168072
 2461 Fit       0.171359
 2462 Fit       0.174520
 2463 Fit       0.175952
 2464 Fit       0.172975
 2465 Fit       0.169712
 2466 Fit       0.166472
 2467 Fit       0.163500
 2468 Fit       0.160973
 2469 Fit       0.159005
 2470 Fit       0.157663
 2471 Fit       0.156985
 2472 Fit       0.156985
 2473 Fit       0.157663
 2474 Fit       0.159005
 2475 Fit       0.160973
 2476 Fit       0.163500
 2477 Fit       0.166472
 2478 Fit       0.169712
 2479 Fit       0.172975
 2480 Fit       0.175952
 2481 Fit       0.174520
 2482 Fit       0.171359
 2483 Fit       0.168072
 2484 Fit       0.164940
 2485 Fit       0.162173
 2486 Fit       0.159914
 2487 Fit       0.158253
 2488 Fit       0.157240
 2489 Fit       0.157112
 2490 Fit       0.157158
 2491 Fit       0.154170
 2492 Fit       0.154170
 2493 Fit       0.157158
 2494 Fit       0.157307
 2495 Fit       0.154004
 2496 Fit       0.152158
 2497 Fit       0.151576
 2498 Fit       0.152158
 2499 Fit       0.154004
 2500 Fit       0.157307
 2501 Fit       0.157589
 2502 Fit       0.154340
 2503 Fit       0.152206
 2504 Fit       0.150939
 2505 Fit       0.150354
 2506 Fit       0.150354
 2507 Fit       0.150939
 2508 Fit       0.152206
 2509 Fit       0.154340
 2510 Fit       0.157589
 2511 Fit       0.154845
 2512 Fit       0.152647
 2513 Fit       0.151202
 2514 Fit       0.150317
 2515 Fit       0.149864
 2516 Fit       0.149777
 2517 Fit       0.150042
 2518 Fit       0.150699
 2519 Fit       0.151844
 2520 Fit       0.153637
 2521 Fit       0.156305
 2522 Fit       0.155625
 2523 Fit       0.153428
 2524 Fit       0.151933
 2525 Fit       0.150946
 2526 Fit       0.150338
 2527 Fit       0.150026
 2528 Fit       0.149965
 2529 Fit       0.150149
 2530 Fit       0.150601
 2531 Fit       0.151385
 2532 Fit       0.152606
 2533 Fit       0.154424
 2534 Fit       0.154758
 2535 Fit       0.153265
 2536 Fit       0.152235
 2537 Fit       0.151548
 2538 Fit       0.151119
 2539 Fit       0.150897
 2540 Fit       0.150854
 2541 Fit       0.150985
 2542 Fit       0.151305
 2543 Fit       0.151855
 2544 Fit       0.152701
 2545 Fit       0.153944
 2546 Fit       0.155732
 2547 Fit       0.156544
 2548 Fit       0.155063
 2549 Fit       0.154030
 2550 Fit       0.153326
 2551 Fit       0.152867
 2552 Fit       0.152599
 2553 Fit       0.152490
 2554 Fit       0.152526
 2555 Fit       0.152711
 2556 Fit       0.153069
 2557 Fit       0.153643
 2558 Fit       0.154499
 2559 Fit       0.155738
 2560 Fit       0.157752
 2561 Fit       0.156705
 2562 Fit       0.155974
 2563 Fit       0.155481
 2564 Fit       0.155171
 2565 Fit       0.155010
 2566 Fit       0.154979
 2567 Fit       0.155074
 2568 Fit       0.155306
 2569 Fit       0.155702
 2570 Fit       0.156306
 2571 Fit       0.157183
 2572 Fit       0.158426
 2573 Fit       0.160392
 2574 Fit       0.159624
 2575 Fit       0.159097
 2576 Fit       0.158758
 2577 Fit       0.158568
 2578 Fit       0.158508
 2579 Fit       0.158568
 2580 Fit       0.158758
 2581 Fit       0.159097
 2582 Fit       0.159624
 2583 Fit       0.160392
 2584 Fit       0.165316
 2585 Fit       0.164497
 2586 Fit       0.163946
 2587 Fit       0.163602
 2588 Fit       0.163425
 2589 Fit       0.163390
 2590 Fit       0.163495
 2591 Fit       0.163751
 2592 Fit       0.164192
 2593 Fit       0.164868
 2594 Fit       0.171125
 2595 Fit       0.170556
 2596 Fit       0.170231
 2597 Fit       0.170101
 2598 Fit       0.170143
 2599 Fit       0.170367
 2600 Fit       0.170806
 2601 Fit       0.157112
 2602 Fit       0.157158
 2603 Fit       0.157158
 2604 Fit       0.154170
 2605 Fit       0.154170
 2606 Fit       0.157307
 2607 Fit       0.157307
 2608 Fit       0.154004
 2609 Fit       0.152158
 2610 Fit       0.151576
 2611 Fit       0.152158
 2612 Fit       0.154004
 2613 Fit       0.157589
 2614 Fit       0.157589
 2615 Fit       0.154340
 2616 Fit       0.152206
 2617 Fit       0.150939
 2618 Fit       0.150354
 2619 Fit       0.150354
 2620 Fit       0.150939
 2621 Fit       0.152206
 2622 Fit       0.154340
 2623 Fit       0.156305
 2624 Fit       0.153637
 2625 Fit       0.151844
 2626 Fit       0.150699
 2627 Fit       0.150042
 2628 Fit       0.149777
 2629 Fit       0.149864
 2630 Fit       0.150317
 2631 Fit       0.151202
 2632 Fit       0.152647
 2633 Fit       0.154845
 2634 Fit       0.154424
 2635 Fit       0.152606
 2636 Fit       0.151385
 2637 Fit       0.150601
 2638 Fit       0.150149
 2639 Fit       0.149965
 2640 Fit       0.150026
 2641 Fit       0.150338
 2642 Fit       0.150946
 2643 Fit       0.151933
 2644 Fit       0.153428
 2645 Fit       0.155625
 2646 Fit       0.155732
 2647 Fit       0.153944
 2648 Fit       0.152701
 2649 Fit       0.151855
 2650 Fit       0.151305
 2651 Fit       0.150985
 2652 Fit       0.150854
 2653 Fit       0.150897
 2654 Fit       0.151119
 2655 Fit       0.151548
 2656 Fit       0.152235
 2657 Fit       0.153265
 2658 Fit       0.154758
 2659 Fit       0.155738
 2660 Fit       0.154499
 2661 Fit       0.153643
 2662 Fit       0.153069
 2663 Fit       0.152711
 2664 Fit       0.152526
 2665 Fit       0.152490
 2666 Fit       0.152599
 2667 Fit       0.152867
 2668 Fit       0.153326
 2669 Fit       0.154030
 2670 Fit       0.155063
 2671 Fit       0.156544
 2672 Fit       0.158426
 2673 Fit       0.157183
 2674 Fit       0.156306
 2675 Fit       0.155702
 2676 Fit       0.155306
 2677 Fit       0.155074
 2678 Fit       0.154979
 2679 Fit       0.155010
 2680 Fit       0.155171
 2681 Fit       0.155481
 2682 Fit       0.155974
 2683 Fit       0.156705
 2684 Fit       0.157752
 2685 Fit       0.160392
 2686 Fit       0.159624
 2687 Fit       0.159097
 2688 Fit       0.158758
 2689 Fit       0.158568
 2690 Fit       0.158508
 2691 Fit       0.158568
 2692 Fit       0.158758
 2693 Fit       0.159097
 2694 Fit       0.159624
 2695 Fit       0.160392
 2696 Fit       0.164868
 2697 Fit       0.164192
 2698 Fit       0.163751
 2699 Fit       0.163495
 2700 Fit       0.163390
 2701 Fit       0.163425
 2702 Fit       0.163602
 2703 Fit       0.163946
 2704 Fit       0.164497
 2705 Fit       0.165316
 2706 Fit       0.170806
 2707 Fit       0.170367
 2708 Fit       0.170143
 2709 Fit       0.170101
 2710 Fit       0.170231
 2711 Fit       0.170556
 2712 Fit       0.171125
 -----------------------------------------------------------------
 Leave Link  602 at Thu Apr  2 16:14:10 2015, MaxMem=    33554432 cpu:         0.1

 Test job not archived.
 1\1\GINC-EAM\SP\RHF\6-31G(d)\C1H4N1(1+)\DULIKAI\02-Apr-2015\0\\# hf/6-
 31g* SCF=tight Test Pop=MK iop(6/33=2,6/42=6)\\title\\1,1\C,0,0.,0.,-0
 .674887\H,0,0.,0.944478,-1.213665\H,0,0.,-0.944478,-1.213665\N,0,0.,0.
 ,0.599636\H,0,0.,0.867464,1.1396\H,0,0.,-0.867464,1.1396\\Version=EM64
 L-G09RevD.01\State=1-A1\HF=-94.382281\RMSD=6.835e-09\Dipole=0.,0.,0.02
 72703\Quadrupole=-3.2267801,0.6713392,2.5554409,0.,0.,0.\PG=C02V [C2(C
 1N1),SGV(H4)]\\@


 THE ... SCIENTISTS WERE WRONG ... THE MOST PERSISTENT PRINCIPLES 
 OF THE UNIVERSE WERE ACCIDENT AND ERROR.

                          -- FRANK HERBERT IN DUNE
 Job cpu time:       0 days  0 hours  0 minutes  0.8 seconds.
 File lengths (MBytes):  RWF=      5 Int=      0 D2E=      0 Chk=      1 Scr=      1
 Normal termination of Gaussian 09 at Thu Apr  2 16:14:10 2015.
