 Entering Gaussian System, Link 0=g09
 Input=gaussian.gjf
 Output=gaussian.log
 Initial command:
 /opt/g09_D01_em64t/g09/l1.exe "/tmp/Gau-23515.inp" -scrdir="/tmp/"
 Entering Link 1 = /opt/g09_D01_em64t/g09/l1.exe PID=     23516.
  
 Copyright (c) 1988,1990,1992,1993,1995,1998,2003,2009,2013,
            Gaussian, Inc.  All Rights Reserved.
  
 This is part of the Gaussian(R) 09 program.  It is based on
 the Gaussian(R) 03 system (copyright 2003, Gaussian, Inc.),
 the Gaussian(R) 98 system (copyright 1998, Gaussian, Inc.),
 the Gaussian(R) 94 system (copyright 1995, Gaussian, Inc.),
 the Gaussian 92(TM) system (copyright 1992, Gaussian, Inc.),
 the Gaussian 90(TM) system (copyright 1990, Gaussian, Inc.),
 the Gaussian 88(TM) system (copyright 1988, Gaussian, Inc.),
 the Gaussian 86(TM) system (copyright 1986, Carnegie Mellon
 University), and the Gaussian 82(TM) system (copyright 1983,
 Carnegie Mellon University). Gaussian is a federally registered
 trademark of Gaussian, Inc.
  
 This software contains proprietary and confidential information,
 including trade secrets, belonging to Gaussian, Inc.
  
 This software is provided under written license and may be
 used, copied, transmitted, or stored only in accord with that
 written license.
  
 The following legend is applicable only to US Government
 contracts under FAR:
  
                    RESTRICTED RIGHTS LEGEND
  
 Use, reproduction and disclosure by the US Government is
 subject to restrictions as set forth in subparagraphs (a)
 and (c) of the Commercial Computer Software - Restricted
 Rights clause in FAR 52.227-19.
  
 Gaussian, Inc.
 340 Quinnipiac St., Bldg. 40, Wallingford CT 06492
  
  
 ---------------------------------------------------------------
 Warning -- This program may not be used in any manner that
 competes with the business of Gaussian, Inc. or will provide
 assistance to any competitor of Gaussian, Inc.  The licensee
 of this program is prohibited from giving any competitor of
 Gaussian, Inc. access to this program.  By using this program,
 the user acknowledges that Gaussian, Inc. is engaged in the
 business of creating and licensing software in the field of
 computational chemistry and represents and warrants to the
 licensee that it is not a competitor of Gaussian, Inc. and that
 it will not use this program in any manner prohibited above.
 ---------------------------------------------------------------
  

 Cite this work as:
 Gaussian 09, Revision D.01,
 M. J. Frisch, G. W. Trucks, H. B. Schlegel, G. E. Scuseria, 
 M. A. Robb, J. R. Cheeseman, G. Scalmani, V. Barone, B. Mennucci, 
 G. A. Petersson, H. Nakatsuji, M. Caricato, X. Li, H. P. Hratchian, 
 A. F. Izmaylov, J. Bloino, G. Zheng, J. L. Sonnenberg, M. Hada, 
 M. Ehara, K. Toyota, R. Fukuda, J. Hasegawa, M. Ishida, T. Nakajima, 
 Y. Honda, O. Kitao, H. Nakai, T. Vreven, J. A. Montgomery, Jr., 
 J. E. Peralta, F. Ogliaro, M. Bearpark, J. J. Heyd, E. Brothers, 
 K. N. Kudin, V. N. Staroverov, T. Keith, R. Kobayashi, J. Normand, 
 K. Raghavachari, A. Rendell, J. C. Burant, S. S. Iyengar, J. Tomasi, 
 M. Cossi, N. Rega, J. M. Millam, M. Klene, J. E. Knox, J. B. Cross, 
 V. Bakken, C. Adamo, J. Jaramillo, R. Gomperts, R. E. Stratmann, 
 O. Yazyev, A. J. Austin, R. Cammi, C. Pomelli, J. W. Ochterski, 
 R. L. Martin, K. Morokuma, V. G. Zakrzewski, G. A. Voth, 
 P. Salvador, J. J. Dannenberg, S. Dapprich, A. D. Daniels, 
 O. Farkas, J. B. Foresman, J. V. Ortiz, J. Cioslowski, 
 and D. J. Fox, Gaussian, Inc., Wallingford CT, 2013.
 
 ******************************************
 Gaussian 09:  EM64L-G09RevD.01 24-Apr-2013
                15-Nov-2014 
 ******************************************
 %chk=gaussian.chk
 %mem=1GB
 %nproc=2
 Will use up to    2 processors via shared memory.
 ----------------------------------------------------------------
 # force b3lyp/6-31G** scf=(tight,maxcycle=10000) nosymm pop=full
 ----------------------------------------------------------------
 1/10=7,30=1,38=1/1,3;
 2/12=2,15=1,17=6,18=5,40=1/2;
 3/5=1,6=6,7=101,11=2,16=1,25=1,30=1,71=1,74=-5/1,2,3;
 4//1;
 5/5=2,7=10000,32=2,38=5/2;
 6/7=3,28=1/1;
 7/29=1,30=1/1,2,3,16;
 1/10=7,30=1/3;
 99//99;
 -------
 [0] [0]
 -------
 Symbolic Z-matrix:
 Charge =  1 Multiplicity = 1
 c                    -5.53382   0.71251   0.40571 
 n                    -1.47572   0.18057   0.11026 
 h                    -6.11873   1.64386   2.28957 
 h                    -6.63709  -0.43417  -1.08593 
 h                    -0.85482  -0.98783  -1.33432 
 h                    -0.40056   0.85489   1.60178 
 

 GradGradGradGradGradGradGradGradGradGradGradGradGradGradGradGradGradGrad
 Berny optimization.
 Initialization pass.
 Trust Radius=3.00D-01 FncErr=1.00D-07 GrdErr=1.00D-07
 Number of steps in this run=      2 maximum allowed number of steps=      2.
 GradGradGradGradGradGradGradGradGradGradGradGradGradGradGradGradGradGrad

                          Input orientation:                          
 ---------------------------------------------------------------------
 Center     Atomic      Atomic             Coordinates (Angstroms)
 Number     Number       Type             X           Y           Z
 ---------------------------------------------------------------------
      1          6           0       -5.533818    0.712513    0.405709
      2          7           0       -1.475722    0.180569    0.110256
      3          1           0       -6.118728    1.643865    2.289570
      4          1           0       -6.637086   -0.434167   -1.085929
      5          1           0       -0.854823   -0.987832   -1.334323
      6          1           0       -0.400556    0.854887    1.601777
 ---------------------------------------------------------------------
                    Distance matrix (angstroms):
                    1          2          3          4          5
     1  C    0.000000
     2  N    4.103462   0.000000
     3  H    2.181391   5.333680   0.000000
     4  H    2.181068   5.333707   3.997612   0.000000
     5  H    5.273697   1.958950   6.911376   5.814018   0.000000
     6  H    5.272687   1.958398   5.813178   6.912288   3.496092
                    6
     6  H    0.000000
 Symmetry turned off by external request.
 Stoichiometry    CH4N(1+)
 Framework group  C1[X(CH4N)]
 Deg. of freedom    12
 Full point group                 C1      NOp   1
 Rotational constants (GHZ):     35.1711040      3.5333219      3.2171951
 Standard basis: 6-31G(d,p) (6D, 7F)
    50 basis functions,    84 primitive gaussians,    50 cartesian basis functions
     8 alpha electrons        8 beta electrons
       nuclear repulsion energy        15.3220538503 Hartrees.
 NAtoms=    6 NActive=    6 NUniq=    6 SFac= 1.00D+00 NAtFMM=   60 NAOKFM=F Big=F
 Integral buffers will be    131072 words long.
 Raffenetti 2 integral format.
 Two-electron integral symmetry is turned off.
 One-electron integrals computed using PRISM.
 NBasis=    50 RedAO= T EigKep=  4.73D-02  NBF=    50
 NBsUse=    50 1.00D-06 EigRej= -1.00D+00 NBFU=    50
 ExpMin= 1.61D-01 ExpMax= 4.17D+03 ExpMxC= 6.27D+02 IAcc=1 IRadAn=         1 AccDes= 0.00D+00
 Harris functional with IExCor=  402 and IRadAn=       1 diagonalized for initial guess.
 HarFok:  IExCor=  402 AccDes= 0.00D+00 IRadAn=         1 IDoV= 1 UseB2=F ITyADJ=14
 ICtDFT=  3500011 ScaDFX=  1.000000  1.000000  1.000000  1.000000
 FoFCou: FMM=F IPFlag=           0 FMFlag=      100000 FMFlg1=           0
         NFxFlg=           0 DoJE=T BraDBF=F KetDBF=T FulRan=T
         wScrn=  0.000000 ICntrl=     500 IOpCl=  0 I1Cent=   200000004 NGrid=           0
         NMat0=    1 NMatS0=      1 NMatT0=    0 NMatD0=    1 NMtDS0=    0 NMtDT0=    0
 Symmetry not used in FoFCou.
 Keep R1 ints in memory in canonical form, NReq=101742150.
 Requested convergence on RMS density matrix=1.00D-08 within**** cycles.
 Requested convergence on MAX density matrix=1.00D-06.
 Requested convergence on             energy=1.00D-06.
 No special actions if energy rises.
 Integral accuracy reduced to 1.0D-05 until final iterations.
 EnCoef did     2 forward-backward iterations
 EnCoef did   100 forward-backward iterations
 EnCoef did   100 forward-backward iterations
 EnCoef did     3 forward-backward iterations
 EnCoef did     7 forward-backward iterations
 EnCoef did   100 forward-backward iterations
 EnCoef did     3 forward-backward iterations
 EnCoef did     8 forward-backward iterations
 Initial convergence to 1.0D-05 achieved.  Increase integral accuracy.
 SCF Done:  E(RB3LYP) =  -94.0708657955     A.U. after   29 cycles
            NFock= 29  Conv=0.43D-08     -V/T= 2.0191

 **********************************************************************

            Population analysis using the SCF density.

 **********************************************************************

 Alpha  occ. eigenvalues --  -14.69766 -10.59603  -0.93315  -0.76887  -0.53278
 Alpha  occ. eigenvalues --   -0.48857  -0.48387  -0.43328
 Alpha virt. eigenvalues --   -0.40862  -0.35227  -0.35074  -0.33041  -0.30456
 Alpha virt. eigenvalues --   -0.28471   0.32062   0.32950   0.40587   0.42755
 Alpha virt. eigenvalues --    0.47100   0.49331   0.53855   0.53939   0.61385
 Alpha virt. eigenvalues --    0.61441   0.62405   0.64197   1.44103   1.44204
 Alpha virt. eigenvalues --    1.44221   1.44338   1.44945   1.44995   1.45329
 Alpha virt. eigenvalues --    1.48912   1.50150   1.50588   1.78949   1.79040
 Alpha virt. eigenvalues --    1.80236   1.80291   1.81583   1.81651   1.82341
 Alpha virt. eigenvalues --    1.82583   1.92381   1.97748   2.02717   2.07407
 Alpha virt. eigenvalues --    3.10984   3.58823
     Molecular Orbital Coefficients:
                           1         2         3         4         5
                           O         O         O         O         O
     Eigenvalues --   -14.69766 -10.59603  -0.93315  -0.76887  -0.53278
   1 1   C  1S          0.00000   0.99307  -0.00066  -0.23348   0.00000
   2        2S          0.00000   0.04516   0.00075   0.53523   0.00000
   3        2PX         0.00002  -0.00069   0.00004  -0.01923   0.00022
   4        2PY         0.00000  -0.00006   0.00002  -0.00255   0.00088
   5        2PZ         0.00000   0.00014  -0.00002   0.00451   0.00141
   6        3S         -0.00003  -0.00543   0.00280   0.55568   0.00000
   7        3PX        -0.00004   0.00049   0.00213  -0.01156   0.00037
   8        3PY         0.00000   0.00005  -0.00030  -0.00255   0.00151
   9        3PZ         0.00000  -0.00011  -0.00014   0.00334   0.00242
  10        4XX         0.00001  -0.00924  -0.00018  -0.01805   0.00000
  11        4YY         0.00001  -0.00932  -0.00028  -0.01676  -0.00001
  12        4ZZ         0.00001  -0.00930  -0.00029  -0.01686   0.00001
  13        4XY         0.00000   0.00002  -0.00004  -0.00019  -0.00001
  14        4XZ         0.00000  -0.00002   0.00001   0.00034  -0.00001
  15        4YZ         0.00000   0.00002   0.00000  -0.00002   0.00000
  16 2   N  1S          0.99308   0.00000  -0.23005   0.00075   0.00003
  17        2S          0.03319   0.00000   0.53165  -0.00268  -0.00009
  18        2PX         0.00064   0.00002   0.02551  -0.00188   0.06191
  19        2PY        -0.00024  -0.00001  -0.00965  -0.00157   0.25012
  20        2PZ         0.00005   0.00000   0.00213   0.00128   0.39864
  21        3S          0.00280   0.00004   0.55854  -0.00018  -0.00013
  22        3PX        -0.00020  -0.00004   0.01805  -0.00347   0.04115
  23        3PY         0.00008   0.00000  -0.00690  -0.00082   0.16629
  24        3PZ        -0.00002   0.00001   0.00156   0.00106   0.26502
  25        4XX        -0.00765  -0.00001  -0.01231  -0.00021   0.00313
  26        4YY        -0.00769  -0.00002  -0.00820  -0.00044  -0.00421
  27        4ZZ        -0.00767  -0.00002  -0.00712  -0.00044   0.00110
  28        4XY        -0.00002   0.00000   0.00183   0.00001   0.00671
  29        4XZ         0.00001   0.00000  -0.00014  -0.00005   0.01175
  30        4YZ         0.00003   0.00000   0.00080  -0.00001  -0.00347
  31 3   H  1S          0.00000  -0.00006  -0.00002   0.03532   0.00073
  32        2S          0.00000   0.00057  -0.00003   0.03519   0.00053
  33        3PX         0.00000   0.00003   0.00000   0.00092   0.00000
  34        3PY         0.00000  -0.00008   0.00000  -0.00156   0.00000
  35        3PZ         0.00000  -0.00015  -0.00001  -0.00309  -0.00001
  36 4   H  1S          0.00000  -0.00006  -0.00002   0.03535  -0.00073
  37        2S          0.00000   0.00057  -0.00002   0.03521  -0.00053
  38        3PX         0.00000   0.00008   0.00000   0.00178  -0.00001
  39        3PY         0.00000   0.00009   0.00001   0.00188   0.00000
  40        3PZ         0.00000   0.00012   0.00000   0.00249   0.00000
  41 5   H  1S          0.00001   0.00000   0.03038  -0.00032  -0.18645
  42        2S         -0.00010   0.00000   0.01891  -0.00013  -0.24864
  43        3PX         0.00001   0.00000  -0.00090   0.00000   0.00339
  44        3PY        -0.00001   0.00000   0.00170  -0.00002  -0.00424
  45        3PZ        -0.00001   0.00000   0.00213  -0.00001  -0.00483
  46 6   H  1S          0.00001   0.00000   0.03042  -0.00032   0.18662
  47        2S         -0.00010   0.00000   0.01892  -0.00013   0.24883
  48        3PX         0.00002   0.00000  -0.00157   0.00001  -0.00492
  49        3PY         0.00000   0.00000  -0.00101   0.00000  -0.00193
  50        3PZ         0.00001   0.00000  -0.00218   0.00002  -0.00501
                           6         7         8         9        10
                           O         O         O         V         V
     Eigenvalues --    -0.48857  -0.48387  -0.43328  -0.40862  -0.35227
   1 1   C  1S         -0.00012  -0.00002  -0.03625  -0.02354  -0.00418
   2        2S          0.00399   0.00006   0.10142   0.06748   0.01530
   3        2PX        -0.01975   0.05528   0.38982   0.21614  -0.12865
   4        2PY         0.00024   0.22122   0.04070   0.02966   0.44521
   5        2PZ         0.00287   0.35930  -0.08501  -0.05146  -0.25433
   6        3S         -0.00652   0.00007   0.10437   0.06437   0.00681
   7        3PX        -0.02500   0.03628   0.26487   0.14245  -0.10044
   8        3PY         0.00158   0.14519   0.02593   0.02227   0.32436
   9        3PZ         0.00285   0.23581  -0.05669  -0.03563  -0.18426
  10        4XX         0.00064  -0.00222  -0.00381  -0.00250   0.00147
  11        4YY         0.00088  -0.00112  -0.00010   0.00031  -0.00018
  12        4ZZ         0.00107   0.00333  -0.00585  -0.00318  -0.00069
  13        4XY         0.00014  -0.00530  -0.00201  -0.00115  -0.00236
  14        4XZ         0.00001  -0.00804   0.00031   0.00024   0.00111
  15        4YZ         0.00019   0.00013  -0.00604  -0.00368   0.00016
  16 2   N  1S          0.03490   0.00000   0.00334   0.00119  -0.02337
  17        2S         -0.09509   0.00000  -0.01260  -0.00433   0.06805
  18        2PX         0.51622  -0.00030  -0.07110   0.15612   0.21907
  19        2PY        -0.15659  -0.00130  -0.27327   0.45769  -0.07421
  20        2PZ         0.01816  -0.00200   0.18251  -0.31141   0.01241
  21        3S         -0.11554   0.00000  -0.00458  -0.00287   0.08843
  22        3PX         0.34770  -0.00005  -0.05966   0.10816   0.16733
  23        3PY        -0.10489  -0.00028  -0.19334   0.32736  -0.05369
  24        3PZ         0.01185  -0.00038   0.13058  -0.22219   0.00763
  25        4XX         0.00684  -0.00003  -0.00211   0.00285   0.00235
  26        4YY        -0.00192   0.00005   0.00000  -0.00332  -0.00050
  27        4ZZ         0.00231  -0.00003  -0.00113  -0.00048  -0.00478
  28        4XY        -0.00438  -0.00006  -0.00234   0.00397  -0.00141
  29        4XZ         0.00264  -0.00011   0.00164  -0.00297  -0.00089
  30        4YZ         0.00660   0.00004  -0.00049   0.00191  -0.00491
  31 3   H  1S          0.00528   0.19605  -0.16438  -0.10170  -0.01763
  32        2S          0.00749   0.29051  -0.26505  -0.16547  -0.03164
  33        3PX        -0.00005   0.00249   0.00066   0.00045  -0.00067
  34        3PY        -0.00008  -0.00273   0.00168   0.00095   0.00225
  35        3PZ        -0.00015  -0.00565   0.00252   0.00133  -0.00144
  36 4   H  1S          0.00530  -0.19615  -0.16427  -0.10166  -0.01763
  37        2S          0.00751  -0.29062  -0.26485  -0.16542  -0.03163
  38        3PX        -0.00001  -0.00402  -0.00013   0.00002  -0.00064
  39        3PY         0.00010  -0.00337  -0.00153  -0.00079   0.00239
  40        3PZ         0.00014  -0.00426  -0.00269  -0.00150  -0.00122
  41 5   H  1S          0.16212   0.00124   0.01162   0.00785  -0.14533
  42        2S          0.23616   0.00190   0.01940   0.01266  -0.25750
  43        3PX         0.00099  -0.00002  -0.00050   0.00090   0.00079
  44        3PY         0.00225   0.00003  -0.00161   0.00289   0.00125
  45        3PZ         0.00394   0.00004   0.00117  -0.00183   0.00227
  46 6   H  1S          0.16194  -0.00122   0.01160   0.00784  -0.14511
  47        2S          0.23588  -0.00188   0.01937   0.01264  -0.25715
  48        3PX        -0.00021   0.00004  -0.00052   0.00088   0.00011
  49        3PY        -0.00263   0.00002  -0.00168   0.00278  -0.00156
  50        3PZ        -0.00383   0.00004   0.00106  -0.00201  -0.00221
                          11        12        13        14        15
                           V         V         V         V         V
     Eigenvalues --    -0.35074  -0.33041  -0.30456  -0.28471   0.32062
   1 1   C  1S          0.00348   0.03807   0.00000   0.00002   0.01408
   2        2S         -0.01258  -0.11469   0.00000  -0.00007  -0.30087
   3        2PX        -0.07028   0.46758  -0.00064   0.07127  -0.88050
   4        2PY         0.32333   0.06813  -0.00244   0.28515   0.34288
   5        2PZ        -0.18827  -0.11395  -0.00405   0.46313  -0.07584
   6        3S         -0.00602  -0.11268   0.00001  -0.00009   0.31005
   7        3PX        -0.04110   0.33029  -0.00075   0.05110   0.97923
   8        3PY         0.23388   0.04851  -0.00294   0.20445  -0.36825
   9        3PZ        -0.13767  -0.08072  -0.00481   0.33205   0.07632
  10        4XX         0.00042  -0.00272  -0.00002   0.00088  -0.02085
  11        4YY        -0.00089   0.00311   0.00000   0.00045  -0.02531
  12        4ZZ        -0.00040   0.00911   0.00002  -0.00132  -0.02159
  13        4XY        -0.00160   0.00069  -0.00005   0.00209   0.00026
  14        4XZ         0.00096   0.00240  -0.00008   0.00318   0.00011
  15        4YZ         0.00110   0.00706   0.00001  -0.00005   0.00422
  16 2   N  1S          0.03183  -0.00211   0.00005   0.00000   0.00318
  17        2S         -0.09001   0.00246  -0.00013   0.00000  -0.15863
  18        2PX        -0.32475   0.05151  -0.06607  -0.00100   0.24421
  19        2PY         0.09153  -0.00122  -0.26654  -0.00409  -0.02187
  20        2PZ        -0.00679  -0.00727  -0.42486  -0.00657  -0.02406
  21        3S         -0.12630   0.01588  -0.00024   0.00000   0.22181
  22        3PX        -0.23983   0.02832  -0.05168  -0.00052  -0.24333
  23        3PY         0.06803   0.00065  -0.20843  -0.00213   0.02331
  24        3PZ        -0.00529  -0.00483  -0.33224  -0.00340   0.02301
  25        4XX        -0.00291  -0.00025   0.00083  -0.00002  -0.03340
  26        4YY         0.00210  -0.00194  -0.00054  -0.00003  -0.04107
  27        4ZZ         0.00796  -0.00240  -0.00028   0.00005  -0.04123
  28        4XY         0.00184  -0.00024   0.00187  -0.00005  -0.00124
  29        4XZ         0.00148  -0.00029   0.00308  -0.00008  -0.00063
  30        4YZ         0.00677  -0.00053  -0.00060  -0.00001   0.00001
  31 3   H  1S          0.01553   0.21195   0.00273  -0.21789  -0.03274
  32        2S          0.02827   0.38956   0.00589  -0.42675   0.09214
  33        3PX        -0.00035   0.00156  -0.00003   0.00321   0.01458
  34        3PY         0.00173   0.00213   0.00002  -0.00295  -0.00211
  35        3PZ        -0.00086   0.00312   0.00005  -0.00682   0.01022
  36 4   H  1S          0.01553   0.21181  -0.00274   0.21805  -0.03276
  37        2S          0.02826   0.38931  -0.00591   0.42710   0.09219
  38        3PX        -0.00038   0.00054   0.00004  -0.00500   0.01215
  39        3PY         0.00160  -0.00197   0.00003  -0.00420  -0.01191
  40        3PZ        -0.00107  -0.00353   0.00003  -0.00480  -0.00569
  41 5   H  1S          0.20214  -0.01842  -0.24012  -0.00262  -0.03422
  42        2S          0.35836  -0.03260  -0.45163  -0.00477   0.03259
  43        3PX        -0.00117   0.00017  -0.00393  -0.00006  -0.00496
  44        3PY        -0.00189   0.00034   0.00515   0.00010  -0.00042
  45        3PZ        -0.00321   0.00038   0.00574   0.00011  -0.00062
  46 6   H  1S          0.20178  -0.01838   0.24054   0.00262  -0.03424
  47        2S          0.35776  -0.03254   0.45252   0.00477   0.03261
  48        3PX        -0.00018   0.00004   0.00576   0.00010  -0.00460
  49        3PY         0.00216  -0.00021   0.00225   0.00004   0.00104
  50        3PZ         0.00324  -0.00049   0.00607   0.00012   0.00170
                          16        17        18        19        20
                           V         V         V         V         V
     Eigenvalues --     0.32950   0.40587   0.42755   0.47100   0.49331
   1 1   C  1S          0.00797   0.00004   0.04073   0.00159   0.01225
   2        2S         -0.16250  -0.00121  -1.36460  -0.04817  -0.33578
   3        2PX        -0.29016  -0.13325   0.31600  -0.01675  -0.25054
   4        2PY        -0.80568  -0.53533   0.01471   0.03167   0.03226
   5        2PZ         0.54052  -0.86968  -0.05642  -0.01781   0.01870
   6        3S          0.16323   0.00132   1.57632   0.05336   0.35788
   7        3PX         0.33273   0.17320  -0.38950   0.02036   0.31295
   8        3PY         0.88068   0.69556  -0.01955  -0.03754  -0.03768
   9        3PZ        -0.59321   1.12994   0.07024   0.02116  -0.02497
  10        4XX        -0.01165   0.00462  -0.08303  -0.00266  -0.01825
  11        4YY        -0.01302   0.00215  -0.08416  -0.00255  -0.01568
  12        4ZZ        -0.01030  -0.00700  -0.09126  -0.00253  -0.01398
  13        4XY         0.00221   0.01119  -0.00180   0.00021   0.00092
  14        4XZ        -0.00092   0.01704  -0.00116  -0.00010   0.00037
  15        4YZ         0.00242  -0.00037  -0.00788  -0.00003   0.00177
  16 2   N  1S          0.00098   0.00000   0.00172   0.00100  -0.01582
  17        2S         -0.04757  -0.00006  -0.07765  -0.02654   0.53973
  18        2PX         0.07025  -0.00539   0.13320  -0.16251  -0.70555
  19        2PY        -0.03460  -0.02210  -0.00381  -0.78780   0.14805
  20        2PZ         0.01059  -0.03654  -0.01814   0.51948   0.01583
  21        3S          0.06598   0.00009   0.10309   0.03009  -0.66485
  22        3PX        -0.07109   0.00668  -0.14968   0.17563   0.84287
  23        3PY         0.03499   0.02733   0.00613   0.87545  -0.18065
  24        3PZ        -0.01068   0.04496   0.01921  -0.57650  -0.01643
  25        4XX        -0.01015  -0.00032  -0.01672  -0.00592   0.10286
  26        4YY        -0.01207   0.00022  -0.01729  -0.00568   0.10225
  27        4ZZ        -0.01228   0.00007  -0.01728  -0.00587   0.10370
  28        4XY        -0.00093  -0.00069  -0.00010  -0.00065   0.00038
  29        4XZ         0.00020  -0.00116  -0.00004   0.00043   0.00009
  30        4YZ         0.00002   0.00024   0.00003   0.00002   0.00166
  31 3   H  1S         -0.01788  -0.01364  -0.21474  -0.01036  -0.07947
  32        2S          0.06092  -0.35967  -0.06108   0.00332   0.06155
  33        3PX         0.00401   0.02356   0.00465   0.00080   0.00796
  34        3PY         0.01903  -0.01726  -0.02166  -0.00141  -0.00149
  35        3PZ        -0.00423  -0.04073  -0.04143  -0.00058  -0.00176
  36 4   H  1S         -0.01789   0.01308  -0.21460  -0.01025  -0.07946
  37        2S          0.06098   0.35985  -0.06204   0.00378   0.06149
  38        3PX         0.00224  -0.03398   0.01655   0.00104   0.00829
  39        3PY         0.01192  -0.02459   0.02583  -0.00029  -0.00021
  40        3PZ        -0.01578  -0.02726   0.03570   0.00126   0.00032
  41 5   H  1S         -0.01083  -0.00475  -0.02792  -0.01638   0.29231
  42        2S          0.01138   0.01954   0.03162   0.02396  -0.29889
  43        3PX        -0.00141   0.00121  -0.00346   0.00627   0.02157
  44        3PY         0.00041  -0.00118  -0.00120   0.02525   0.00355
  45        3PZ        -0.00073  -0.00116  -0.00114  -0.01966   0.01081
  46 6   H  1S         -0.01080   0.00473  -0.02795  -0.01637   0.29262
  47        2S          0.01123  -0.01955   0.03171   0.02391  -0.29952
  48        3PX        -0.00127  -0.00159  -0.00293   0.00689   0.01797
  49        3PY         0.00102  -0.00037   0.00095   0.02778  -0.01096
  50        3PZ         0.00024  -0.00123   0.00229  -0.01567  -0.01234
                          21        22        23        24        25
                           V         V         V         V         V
     Eigenvalues --     0.53855   0.53939   0.61385   0.61441   0.62405
   1 1   C  1S         -0.00008   0.00152  -0.00004  -0.00259   0.00001
   2        2S          0.00194  -0.03922   0.00031   0.01838  -0.00003
   3        2PX         0.00729  -0.02803  -0.00121   0.05057   0.00258
   4        2PY         0.02327   0.00310  -0.00826  -0.00614   0.01012
   5        2PZ         0.03745   0.00483  -0.01316  -0.00373   0.01642
   6        3S         -0.00197   0.04000   0.00001   0.00172  -0.00010
   7        3PX        -0.00957   0.03742   0.00028  -0.07312   0.03527
   8        3PY        -0.03050  -0.00378   0.00601   0.00666   0.14144
   9        3PZ        -0.04907  -0.00660   0.00951   0.00694   0.22975
  10        4XX        -0.00001  -0.00246  -0.00019   0.00022   0.00779
  11        4YY        -0.00007  -0.00123  -0.00009  -0.00082   0.00401
  12        4ZZ         0.00030  -0.00082   0.00022  -0.00323  -0.01180
  13        4XY        -0.00034   0.00023  -0.00048  -0.00069   0.01859
  14        4XZ        -0.00048   0.00016  -0.00073  -0.00043   0.02821
  15        4YZ        -0.00005   0.00041  -0.00002  -0.00265  -0.00044
  16 2   N  1S         -0.00063   0.01373  -0.00030  -0.01798   0.00000
  17        2S          0.04036  -0.90109  -0.01078  -0.72157  -0.00002
  18        2PX        -0.08441  -0.53997   0.06013   0.04277   0.00329
  19        2PY        -0.44886   0.11775   0.23860  -0.01851   0.01318
  20        2PZ        -0.70502  -0.03540   0.38084  -0.00310   0.02110
  21        3S         -0.05597   1.25619   0.02096   1.37068   0.00005
  22        3PX         0.12893   0.62839  -0.04435   0.08543  -0.00337
  23        3PY         0.64609  -0.13155  -0.18317  -0.01947  -0.01353
  24        3PZ         1.01763   0.05082  -0.29156   0.00482  -0.02167
  25        4XX         0.00497  -0.16073   0.00175  -0.15392   0.00012
  26        4YY         0.00985  -0.16285  -0.00720  -0.15404  -0.00019
  27        4ZZ         0.00749  -0.17472  -0.00144  -0.14976   0.00006
  28        4XY        -0.00478  -0.00047   0.00887  -0.00046   0.00028
  29        4XZ        -0.00806  -0.00426   0.01537   0.00134   0.00049
  30        4YZ         0.00291  -0.01448  -0.00403   0.00558  -0.00015
  31 3   H  1S          0.01076  -0.01489  -0.03193   0.06075   0.90835
  32        2S          0.00660   0.01357   0.02623  -0.06425  -0.91604
  33        3PX        -0.00144   0.00094   0.00021  -0.00139   0.01020
  34        3PY         0.00109  -0.00002  -0.00017  -0.00111  -0.00950
  35        3PZ         0.00253  -0.00002  -0.00041  -0.00244  -0.02097
  36 4   H  1S         -0.00925  -0.01582   0.03391   0.05981  -0.90883
  37        2S         -0.00795   0.01291  -0.02831  -0.06348   0.91655
  38        3PX         0.00199   0.00110  -0.00034  -0.00065  -0.01574
  39        3PY         0.00153   0.00002  -0.00020   0.00183  -0.01268
  40        3PZ         0.00174  -0.00003  -0.00021   0.00233  -0.01505
  41 5   H  1S         -0.36283  -0.40350  -0.81033   0.77691  -0.02562
  42        2S          0.70185   0.12679   0.66543  -0.91630   0.01685
  43        3PX         0.04031   0.00254  -0.01052  -0.01924  -0.00092
  44        3PY        -0.04609   0.03282   0.00791   0.03972   0.00090
  45        3PZ        -0.04968   0.04825   0.00684   0.04979   0.00090
  46 6   H  1S          0.39856  -0.36734   0.83572   0.74984   0.02577
  47        2S         -0.71140   0.06098  -0.69483  -0.89361  -0.01699
  48        3PX        -0.05478  -0.01759   0.01161  -0.03522   0.00120
  49        3PY        -0.01531  -0.02998   0.00038  -0.02379   0.00028
  50        3PZ        -0.04770  -0.05395   0.00592  -0.05156   0.00096
                          26        27        28        29        30
                           V         V         V         V         V
     Eigenvalues --     0.64197   1.44103   1.44204   1.44221   1.44338
   1 1   C  1S          0.01530   0.00008  -0.00015   0.00001  -0.00304
   2        2S          0.45813  -0.00184   0.00035  -0.00003   0.00700
   3        2PX         0.00382  -0.00201  -0.00045  -0.00003   0.00418
   4        2PY        -0.00143   0.00048   0.00292  -0.00001   0.00044
   5        2PZ         0.00044   0.00000  -0.00174  -0.00004  -0.00090
   6        3S         -0.81719   0.00157   0.00125  -0.00008   0.02461
   7        3PX         0.12113   0.00295  -0.00059  -0.00001  -0.00644
   8        3PY         0.01784  -0.00050   0.00084  -0.00012  -0.00115
   9        3PZ        -0.02983  -0.00012  -0.00038  -0.00022   0.00166
  10        4XX         0.02326  -0.01044  -0.32180  -0.04921   0.45900
  11        4YY         0.02909   0.00299   0.12906   0.76613  -0.58487
  12        4ZZ         0.06446   0.00811   0.19194  -0.71687   0.10859
  13        4XY         0.00817   0.03371   0.81090   0.00881   0.26263
  14        4XZ         0.00611  -0.01851  -0.43911  -0.23396  -0.15757
  15        4YZ         0.03938  -0.00528  -0.20733   0.45638   0.71552
  16 2   N  1S         -0.00050   0.00411  -0.00008   0.00000  -0.00010
  17        2S         -0.05712   0.07175  -0.00393  -0.00003   0.00065
  18        2PX         0.03580   0.01646   0.00049   0.00000  -0.00113
  19        2PY        -0.00521  -0.00494   0.00019  -0.00002   0.00035
  20        2PZ        -0.00226   0.00084  -0.00021  -0.00004  -0.00004
  21        3S          0.09716  -0.13535   0.00620   0.00004  -0.00002
  22        3PX        -0.03678  -0.03549  -0.00033  -0.00001   0.00177
  23        3PY         0.00433   0.00975  -0.00048   0.00002  -0.00035
  24        3PZ         0.00296  -0.00142   0.00038   0.00004  -0.00005
  25        4XX        -0.01129  -0.19615   0.00802   0.00021   0.00123
  26        4YY        -0.01062  -0.18357   0.00762  -0.00011   0.00021
  27        4ZZ        -0.01023   0.44342  -0.01770  -0.00011  -0.00223
  28        4XY         0.00005  -0.02884   0.00063   0.00038   0.00053
  29        4XZ         0.00022   0.22074  -0.00859   0.00060  -0.00135
  30        4YZ         0.00049   0.78931  -0.03169  -0.00032  -0.00325
  31 3   H  1S         -0.87850   0.00030   0.00235  -0.00135   0.04225
  32        2S          0.92586  -0.00035  -0.00396   0.00222  -0.07117
  33        3PX        -0.00707   0.00061   0.00333  -0.00582   0.02318
  34        3PY         0.01835  -0.00056  -0.01152   0.02217  -0.03924
  35        3PZ         0.03477   0.00004   0.00083  -0.00954  -0.08049
  36 4   H  1S         -0.87804   0.00029   0.00217   0.00108   0.04250
  37        2S          0.92537  -0.00031  -0.00364  -0.00177  -0.07163
  38        3PX        -0.01690   0.00064   0.00439   0.00630   0.04566
  39        3PY        -0.02112  -0.00040  -0.00649  -0.01980   0.04971
  40        3PZ        -0.02936   0.00032   0.00862   0.01378   0.06431
  41 5   H  1S          0.04121  -0.01600   0.00069   0.00001   0.00000
  42        2S         -0.04624  -0.01230   0.00056   0.00005  -0.00002
  43        3PX        -0.00244  -0.12669   0.00480   0.00007   0.00083
  44        3PY         0.00176   0.14487  -0.00606  -0.00020  -0.00046
  45        3PZ         0.00205   0.15722  -0.00648  -0.00024  -0.00042
  46 6   H  1S          0.04119  -0.01631   0.00071   0.00000   0.00001
  47        2S         -0.04623  -0.01225   0.00056  -0.00005  -0.00002
  48        3PX        -0.00305  -0.17781   0.00694  -0.00008   0.00097
  49        3PY        -0.00070  -0.05880   0.00245  -0.00009   0.00007
  50        3PZ        -0.00186  -0.16774   0.00710  -0.00018   0.00041
                          31        32        33        34        35
                           V         V         V         V         V
     Eigenvalues --     1.44945   1.44995   1.45329   1.48912   1.50150
   1 1   C  1S         -0.00001   0.00162   0.00000   0.00000  -0.00009
   2        2S         -0.00003   0.00362   0.00001   0.00000   0.00228
   3        2PX         0.00086   0.00304  -0.00018   0.00001   0.00213
   4        2PY         0.00366   0.00040  -0.00076   0.00006  -0.00096
   5        2PZ         0.00595  -0.00061  -0.00122   0.00010   0.00027
   6        3S          0.00018  -0.02597  -0.00001   0.00000  -0.00183
   7        3PX        -0.00271   0.00868   0.00029  -0.00003  -0.00361
   8        3PY        -0.01060   0.00092   0.00122  -0.00011   0.00137
   9        3PZ        -0.01719  -0.00220   0.00195  -0.00018  -0.00030
  10        4XX         0.20439   0.79422   0.00073  -0.00023  -0.00269
  11        4YY         0.09699  -0.21935  -0.00037  -0.00007   0.00076
  12        4ZZ        -0.30136  -0.57182  -0.00036   0.00030   0.00099
  13        4XY         0.51025   0.04300   0.00166  -0.00055   0.00014
  14        4XZ         0.78267  -0.30633   0.00265  -0.00084   0.00062
  15        4YZ        -0.01941  -0.45425  -0.00048   0.00005   0.00032
  16 2   N  1S          0.00000  -0.00017  -0.00001   0.00000   0.00013
  17        2S         -0.00002   0.00194  -0.00040   0.00000   0.00039
  18        2PX         0.00004  -0.00209   0.00481   0.00002   0.00098
  19        2PY         0.00004   0.00058   0.01988   0.00009  -0.00026
  20        2PZ         0.00008  -0.00004   0.03163   0.00018   0.00001
  21        3S          0.00001  -0.00122   0.00060   0.00000  -0.00163
  22        3PX        -0.00005   0.00325  -0.01177  -0.00029  -0.00414
  23        3PY        -0.00001  -0.00044  -0.04836  -0.00118  -0.00883
  24        3PZ        -0.00003  -0.00023  -0.07698  -0.00197   0.00619
  25        4XX        -0.00065   0.00159   0.20250  -0.05193   0.47341
  26        4YY        -0.00013  -0.00160  -0.22103  -0.72929  -0.42237
  27        4ZZ         0.00080  -0.00105   0.01830   0.78121  -0.04986
  28        4XY        -0.00147   0.00101   0.43900  -0.22508   0.66001
  29        4XZ        -0.00220  -0.00118   0.75023  -0.12248  -0.50110
  30        4YZ         0.00019   0.00021  -0.20146  -0.38825   0.19522
  31 3   H  1S         -0.05376  -0.05130   0.00007   0.00005   0.00005
  32        2S          0.09222   0.08611  -0.00062   0.00003  -0.00014
  33        3PX        -0.01615  -0.04809   0.00041  -0.00007  -0.00054
  34        3PY         0.05708   0.04314  -0.00027  -0.00002   0.00001
  35        3PZ         0.10772   0.09639  -0.00060  -0.00003  -0.00061
  36 4   H  1S          0.05460  -0.05007  -0.00007  -0.00005   0.00005
  37        2S         -0.09367   0.08404   0.00062  -0.00003  -0.00015
  38        3PX         0.04830  -0.07244  -0.00057   0.00006  -0.00038
  39        3PY         0.06720  -0.05695  -0.00035  -0.00003   0.00062
  40        3PZ         0.09372  -0.06640  -0.00040  -0.00005   0.00037
  41 5   H  1S         -0.00002  -0.00008   0.00738   0.00020  -0.00016
  42        2S         -0.00013  -0.00018   0.01640   0.00013   0.00017
  43        3PX        -0.00013   0.00068   0.01897   0.02387   0.01490
  44        3PY         0.00058   0.00033  -0.14465   0.07348   0.03924
  45        3PZ         0.00062   0.00041  -0.20243  -0.05558  -0.02283
  46 6   H  1S          0.00002  -0.00008  -0.00739  -0.00021  -0.00016
  47        2S          0.00013  -0.00017  -0.01600  -0.00012   0.00018
  48        3PX         0.00030   0.00053  -0.08016  -0.02519   0.01403
  49        3PY         0.00028  -0.00029  -0.11175  -0.07880   0.03563
  50        3PZ         0.00074  -0.00058  -0.20522   0.04760  -0.02860
                          36        37        38        39        40
                           V         V         V         V         V
     Eigenvalues --     1.50588   1.78949   1.79040   1.80236   1.80291
   1 1   C  1S         -0.00032   0.00000   0.00000  -0.00014  -0.00043
   2        2S          0.00614   0.00000   0.00001   0.00227   0.00726
   3        2PX         0.00618   0.00000  -0.00002   0.00099   0.00308
   4        2PY        -0.00051  -0.00001  -0.00008  -0.00042  -0.00024
   5        2PZ        -0.00064  -0.00001  -0.00013   0.00011  -0.00032
   6        3S         -0.00452   0.00000  -0.00001  -0.00143  -0.00462
   7        3PX        -0.00907   0.00000   0.00001  -0.00155  -0.00476
   8        3PY         0.00074   0.00001   0.00009   0.00063   0.00037
   9        3PZ         0.00094   0.00002   0.00014  -0.00015   0.00050
  10        4XX        -0.00168   0.00001   0.00006  -0.00110  -0.00340
  11        4YY        -0.00047   0.00000   0.00002  -0.00027  -0.00076
  12        4ZZ        -0.00048  -0.00001  -0.00008  -0.00002  -0.00020
  13        4XY        -0.00036   0.00002   0.00014   0.00027   0.00030
  14        4XZ         0.00046   0.00003   0.00022   0.00004   0.00046
  15        4YZ         0.00014   0.00000  -0.00001   0.00022   0.00065
  16 2   N  1S         -0.00292   0.00000   0.00000  -0.00003  -0.00021
  17        2S          0.00599   0.00000   0.00002  -0.00086  -0.00821
  18        2PX        -0.00152   0.00033   0.00408   0.02662   0.06266
  19        2PY         0.00014   0.00129   0.01616   0.06082  -0.02588
  20        2PZ         0.00012   0.00184   0.02582  -0.04229   0.00648
  21        3S          0.01423   0.00000   0.00000   0.00131   0.01226
  22        3PX        -0.01070  -0.00053  -0.00693  -0.04351  -0.10158
  23        3PY         0.00360  -0.00209  -0.02752  -0.09950   0.04206
  24        3PZ        -0.00054  -0.00298  -0.04396   0.06919  -0.01057
  25        4XX         0.80290   0.00974   0.02495  -0.04148  -0.10634
  26        4YY        -0.42085   0.10225  -0.03789   0.02915   0.01398
  27        4ZZ        -0.40213  -0.11198   0.01291   0.01179   0.08684
  28        4XY        -0.53181   0.03735   0.05316  -0.04514   0.04978
  29        4XZ         0.13895   0.02640   0.09441   0.03816   0.01063
  30        4YZ         0.18048   0.05346  -0.03014  -0.00410   0.07642
  31 3   H  1S         -0.00014   0.00000  -0.00003  -0.00005  -0.00019
  32        2S         -0.00041   0.00000   0.00000   0.00005   0.00018
  33        3PX        -0.00141   0.00007   0.00046  -0.00746  -0.02343
  34        3PY        -0.00056  -0.00003  -0.00033   0.00255  -0.00152
  35        3PZ        -0.00121  -0.00009  -0.00079  -0.00292  -0.00527
  36 4   H  1S         -0.00014   0.00000   0.00003  -0.00005  -0.00019
  37        2S         -0.00041   0.00000   0.00000   0.00005   0.00018
  38        3PX        -0.00103  -0.00010  -0.00069  -0.00689  -0.02129
  39        3PY         0.00099  -0.00005  -0.00046   0.00476   0.00709
  40        3PZ         0.00131  -0.00005  -0.00052   0.00065   0.00872
  41 5   H  1S          0.00082   0.00009   0.00049   0.00031   0.00198
  42        2S          0.00111  -0.00062  -0.00917   0.00074   0.00687
  43        3PX         0.06212   0.21945   0.61916   0.24607   0.62772
  44        3PY        -0.01295   0.56290  -0.02921   0.55876  -0.09275
  45        3PZ         0.01621  -0.35772   0.33347  -0.35210   0.29405
  46 6   H  1S          0.00083  -0.00009  -0.00050   0.00031   0.00197
  47        2S          0.00109   0.00062   0.00921   0.00074   0.00686
  48        3PX         0.05842  -0.21224  -0.52760   0.23886   0.55663
  49        3PY        -0.02866  -0.53454   0.39167   0.52845  -0.38906
  50        3PZ        -0.00869   0.39778   0.24564  -0.40538  -0.17643
                          41        42        43        44        45
                           V         V         V         V         V
     Eigenvalues --     1.81583   1.81651   1.82341   1.82583   1.92381
   1 1   C  1S          0.00000   0.00000  -0.00188   0.00002   0.01740
   2        2S          0.00000  -0.00001   0.05275  -0.00033  -0.48387
   3        2PX         0.00003   0.00104   0.04530  -0.01363   0.08596
   4        2PY         0.00012   0.00411   0.00566   0.05171   0.01075
   5        2PZ         0.00020   0.00667  -0.01044  -0.02974  -0.02010
   6        3S          0.00000   0.00000  -0.04408   0.00024   0.40822
   7        3PX        -0.00003  -0.00096  -0.06955   0.02200  -0.18204
   8        3PY        -0.00013  -0.00380  -0.00870  -0.08357  -0.02278
   9        3PZ        -0.00022  -0.00617   0.01603   0.04807   0.04250
  10        4XX        -0.00210  -0.01023   0.02632  -0.00589   0.01105
  11        4YY         0.02806  -0.00594  -0.00834   0.00293   0.03634
  12        4ZZ        -0.02597   0.01619  -0.04146   0.00312   0.19593
  13        4XY        -0.00080  -0.02453  -0.00362   0.01278   0.03721
  14        4XZ        -0.01018  -0.03701  -0.01377  -0.00680   0.02720
  15        4YZ         0.01709   0.00017  -0.03910  -0.00388   0.17758
  16 2   N  1S          0.00000   0.00000   0.00073  -0.00026   0.00054
  17        2S          0.00000   0.00000  -0.00772   0.00269  -0.00597
  18        2PX         0.00000   0.00000   0.00597  -0.00212   0.00227
  19        2PY         0.00000  -0.00002  -0.00090  -0.00045  -0.00047
  20        2PZ         0.00000  -0.00003  -0.00036   0.00060  -0.00005
  21        3S          0.00000   0.00000   0.00436  -0.00150   0.00357
  22        3PX         0.00000   0.00000  -0.00965   0.00343  -0.00375
  23        3PY         0.00000   0.00002   0.00127   0.00077   0.00080
  24        3PZ         0.00000   0.00003   0.00070  -0.00101   0.00008
  25        4XX         0.00000  -0.00003   0.00002  -0.00015   0.00248
  26        4YY        -0.00001  -0.00002   0.00130  -0.00051   0.00043
  27        4ZZ         0.00001   0.00005   0.00426  -0.00133   0.00148
  28        4XY        -0.00001  -0.00007   0.00061  -0.00022  -0.00045
  29        4XZ        -0.00001  -0.00010   0.00072  -0.00018   0.00024
  30        4YZ         0.00000   0.00000   0.00350  -0.00094   0.00141
  31 3   H  1S         -0.00013   0.00228  -0.00643   0.00022   0.08123
  32        2S         -0.00002  -0.00189   0.00512  -0.00006  -0.16835
  33        3PX         0.17210   0.63317   0.68239  -0.15612  -0.08092
  34        3PY        -0.59093   0.27421   0.17995   0.59828   0.32937
  35        3PZ         0.34766   0.15266   0.00266  -0.34382   0.60984
  36 4   H  1S          0.00013  -0.00228  -0.00642   0.00022   0.08108
  37        2S          0.00002   0.00188   0.00510  -0.00006  -0.16799
  38        3PX        -0.16971  -0.54099   0.63497  -0.15634  -0.25517
  39        3PY         0.59962   0.09329  -0.01181   0.59818  -0.37230
  40        3PZ        -0.33279   0.44408  -0.30895  -0.34476  -0.53029
  41 5   H  1S          0.00000   0.00001   0.00043  -0.00013   0.00034
  42        2S          0.00000  -0.00001   0.00001   0.00000  -0.00046
  43        3PX         0.00000  -0.00006   0.02335  -0.00773   0.00303
  44        3PY         0.00000  -0.00007   0.00101  -0.00294  -0.00132
  45        3PZ        -0.00001  -0.00011   0.00483   0.00037  -0.00094
  46 6   H  1S          0.00000  -0.00001   0.00043  -0.00013   0.00034
  47        2S          0.00000   0.00001   0.00001   0.00000  -0.00046
  48        3PX         0.00000   0.00004   0.02139  -0.00716   0.00330
  49        3PY        -0.00001  -0.00007  -0.00705  -0.00058  -0.00017
  50        3PZ        -0.00001  -0.00013  -0.00801   0.00414   0.00088
                          46        47        48        49        50
                           V         V         V         V         V
     Eigenvalues --     1.97748   2.02717   2.07407   3.10984   3.58823
   1 1   C  1S         -0.00001   0.00045   0.00000  -0.00872  -0.43845
   2        2S          0.00057  -0.00611  -0.00004   0.07402   3.16031
   3        2PX        -0.02827  -0.00482   0.00090   0.01496   0.02202
   4        2PY        -0.11296   0.00036   0.00370  -0.00183   0.00288
   5        2PZ        -0.18346   0.00046   0.00597  -0.00117  -0.00514
   6        3S         -0.00057   0.00283   0.00003   0.00325   0.86870
   7        3PX         0.06107   0.00803  -0.00183  -0.02507  -0.05371
   8        3PY         0.24389  -0.00055  -0.00745   0.00293  -0.00707
   9        3PZ         0.39607  -0.00078  -0.01203   0.00204   0.01256
  10        4XX        -0.04001   0.00260   0.00073  -0.03536  -1.76516
  11        4YY        -0.02034   0.00130   0.00044  -0.03428  -1.75942
  12        4ZZ         0.06012   0.00079  -0.00114  -0.03372  -1.74486
  13        4XY        -0.09568  -0.00031   0.00172   0.00026   0.00300
  14        4XZ        -0.14525  -0.00022   0.00260   0.00019   0.00340
  15        4YZ         0.00211  -0.00056   0.00000   0.00060   0.01644
  16 2   N  1S          0.00000   0.02328   0.00008  -0.40745   0.00949
  17        2S          0.00004  -0.48465  -0.00242   1.38637  -0.02666
  18        2PX        -0.00025  -0.10851  -0.03224  -0.04359  -0.00658
  19        2PY        -0.00102   0.03188  -0.12837   0.01280   0.00070
  20        2PZ        -0.00159  -0.00175  -0.20481  -0.00130   0.00058
  21        3S         -0.00003   0.49114   0.00278   1.75242  -0.04863
  22        3PX         0.00069   0.24300   0.07157   0.10928   0.01104
  23        3PY         0.00286  -0.07190   0.28460  -0.03199  -0.00109
  24        3PZ         0.00449   0.00444   0.45411   0.00324  -0.00103
  25        4XX         0.00192  -0.04107   0.08077  -1.36446   0.03138
  26        4YY        -0.00212  -0.01363  -0.09609  -1.35477   0.03247
  27        4ZZ         0.00017   0.24376   0.01600  -1.31207   0.03189
  28        4XY         0.00420  -0.00123   0.17624   0.00239   0.00014
  29        4XZ         0.00720   0.08308   0.30437   0.01334  -0.00007
  30        4YZ        -0.00190   0.32234  -0.08109   0.05255  -0.00074
  31 3   H  1S          0.07785  -0.00019  -0.00195   0.00025   0.01737
  32        2S         -0.22042   0.00080   0.00617  -0.00317  -0.10750
  33        3PX        -0.26948  -0.00211   0.00530   0.00120  -0.01890
  34        3PY         0.27513  -0.00122  -0.00531   0.00133   0.03665
  35        3PZ         0.60076  -0.00261  -0.01165   0.00304   0.07224
  36 4   H  1S         -0.07804  -0.00021   0.00195   0.00025   0.01735
  37        2S          0.22090   0.00089  -0.00618  -0.00318  -0.10753
  38        3PX         0.42972  -0.00117  -0.00842   0.00031  -0.03903
  39        3PY         0.36538   0.00213  -0.00706  -0.00222  -0.04403
  40        3PZ         0.43946   0.00278  -0.00848  -0.00273  -0.05882
  41 5   H  1S         -0.00128   0.08085  -0.06140   0.01694  -0.00033
  42        2S          0.00359  -0.22081   0.24991  -0.17837   0.00303
  43        3PX        -0.00441   0.15473  -0.27279   0.03471  -0.00149
  44        3PY         0.00778  -0.39998   0.41032  -0.08176   0.00098
  45        3PZ         0.00948  -0.52069   0.48217  -0.10514   0.00117
  46 6   H  1S          0.00127   0.08019   0.06213   0.01689  -0.00033
  47        2S         -0.00356  -0.21848  -0.25229  -0.17845   0.00303
  48        3PX         0.00735   0.31366   0.42832   0.06765  -0.00183
  49        3PY         0.00426   0.25997   0.20966   0.05196  -0.00040
  50        3PZ         0.00976   0.52912   0.50692   0.10792  -0.00102
     Density Matrix:
                           1         2         3         4         5
   1 1   C  1S          2.08401
   2        2S         -0.16759   0.59762
   3        2PX        -0.02065   0.05827   0.31155
   4        2PY        -0.00189   0.00554   0.05628   0.10120
   5        2PZ         0.00433  -0.01234  -0.02683   0.15203   0.27270
   6        3S         -0.27783   0.61546   0.06027   0.00569  -0.01272
   7        3PX        -0.01284   0.04121   0.21195   0.03766  -0.01921
   8        3PY        -0.00059   0.00256   0.03631   0.06636   0.09991
   9        3PZ         0.00233  -0.00789  -0.01837   0.09970   0.17914
  10        4XX        -0.00964  -0.02092  -0.00254  -0.00120  -0.00111
  11        4YY        -0.01068  -0.01880   0.00042  -0.00042  -0.00094
  12        4ZZ        -0.01017  -0.02007  -0.00357   0.00109   0.00324
  13        4XY         0.00027  -0.00061  -0.00215  -0.00251  -0.00346
  14        4XZ        -0.00022   0.00042  -0.00066  -0.00353  -0.00583
  15        4YZ         0.00049  -0.00124  -0.00470  -0.00043   0.00112
  16 2   N  1S         -0.00030   0.00141   0.00122   0.00027  -0.00036
  17        2S          0.00148  -0.00539  -0.00592  -0.00104   0.00155
  18        2PX         0.00591  -0.01228  -0.07575  -0.00556   0.01499
  19        2PY         0.02058  -0.05837  -0.20685  -0.02245   0.04532
  20        2PZ        -0.01383   0.03854   0.14148   0.01467  -0.03122
  21        3S         -0.00021  -0.00120   0.00104  -0.00041   0.00010
  22        3PX         0.00575  -0.01302  -0.06010  -0.00462   0.01218
  23        3PY         0.01444  -0.04095  -0.14652  -0.01562   0.03253
  24        3PZ        -0.00995   0.02771   0.10137   0.01093  -0.02164
  25        4XX         0.00023  -0.00061  -0.00191  -0.00017   0.00038
  26        4YY         0.00018  -0.00050   0.00010   0.00002   0.00001
  27        4ZZ         0.00026  -0.00070  -0.00095  -0.00010   0.00018
  28        4XY         0.00016  -0.00050  -0.00166  -0.00021   0.00035
  29        4XZ        -0.00010   0.00030   0.00117   0.00011  -0.00031
  30        4YZ         0.00004  -0.00006  -0.00064  -0.00002   0.00014
  31 3   H  1S         -0.00471   0.00453  -0.10805   0.07318   0.16918
  32        2S          0.00390  -0.01595  -0.17617   0.10678   0.25418
  33        3PX        -0.00041   0.00112   0.00076   0.00115   0.00169
  34        3PY         0.00045  -0.00134   0.00107  -0.00106  -0.00226
  35        3PZ         0.00096  -0.00282   0.00147  -0.00228  -0.00452
  36 4   H  1S         -0.00471   0.00453  -0.15132  -0.10034  -0.11268
  37        2S          0.00390  -0.01596  -0.24027  -0.15032  -0.16345
  38        3PX        -0.00067   0.00188  -0.00062  -0.00180  -0.00285
  39        3PY        -0.00058   0.00171  -0.00164  -0.00163  -0.00215
  40        3PZ        -0.00072   0.00213  -0.00267  -0.00212  -0.00258
  41 5   H  1S         -0.00077   0.00336   0.00272   0.00125  -0.00069
  42        2S         -0.00142   0.00571   0.00590   0.00210  -0.00128
  43        3PX         0.00004  -0.00009  -0.00043  -0.00005   0.00008
  44        3PY         0.00012  -0.00033  -0.00134  -0.00012   0.00030
  45        3PZ        -0.00008   0.00026   0.00076   0.00011  -0.00016
  46 6   H  1S         -0.00077   0.00335   0.00261   0.00081  -0.00140
  47        2S         -0.00142   0.00570   0.00569   0.00130  -0.00259
  48        3PX         0.00004  -0.00010  -0.00039  -0.00003   0.00010
  49        3PY         0.00012  -0.00036  -0.00120  -0.00013   0.00028
  50        3PZ        -0.00008   0.00020   0.00098   0.00009  -0.00019
                           6         7         8         9        10
   6        3S          0.63950
   7        3PX         0.04278   0.14447
   8        3PY         0.00257   0.02425   0.04353
   9        3PZ        -0.00813  -0.01314   0.06553   0.11769
  10        4XX        -0.02076  -0.00181  -0.00075  -0.00073   0.00086
  11        4YY        -0.01856   0.00020  -0.00024  -0.00062   0.00078
  12        4ZZ        -0.01987  -0.00253   0.00075   0.00213   0.00081
  13        4XY        -0.00064  -0.00145  -0.00164  -0.00227   0.00005
  14        4XZ         0.00044  -0.00043  -0.00232  -0.00382   0.00002
  15        4YZ        -0.00128  -0.00320  -0.00028   0.00075   0.00005
  16 2   N  1S         -0.00027  -0.00105   0.00043  -0.00010   0.00009
  17        2S         -0.00140   0.00041  -0.00126   0.00072  -0.00012
  18        2PX        -0.02353  -0.06330  -0.00196   0.01115   0.00126
  19        2PY        -0.05680  -0.13685  -0.01428   0.03068   0.00195
  20        2PZ         0.03929   0.09591   0.01014  -0.01960  -0.00141
  21        3S          0.00348   0.00574  -0.00094  -0.00030  -0.00031
  22        3PX        -0.02075  -0.04880  -0.00188   0.00889   0.00102
  23        3PY        -0.03995  -0.09708  -0.00993   0.02199   0.00137
  24        3PZ         0.02828   0.06873   0.00749  -0.01363  -0.00102
  25        4XX        -0.00083  -0.00151  -0.00008   0.00028   0.00004
  26        4YY        -0.00051   0.00007   0.00000  -0.00001   0.00002
  27        4ZZ        -0.00080  -0.00073  -0.00005   0.00013   0.00003
  28        4XY        -0.00041  -0.00101  -0.00013   0.00024   0.00001
  29        4XZ         0.00025   0.00074   0.00010  -0.00017  -0.00001
  30        4YZ        -0.00020  -0.00059   0.00000   0.00010   0.00001
  31 3   H  1S          0.00490  -0.07393   0.04824   0.11137  -0.00088
  32        2S         -0.01628  -0.12052   0.07046   0.16734  -0.00054
  33        3PX         0.00116   0.00051   0.00075   0.00111  -0.00005
  34        3PY        -0.00138   0.00073  -0.00070  -0.00149   0.00006
  35        3PZ        -0.00291   0.00100  -0.00149  -0.00297   0.00012
  36 4   H  1S          0.00490  -0.10233  -0.06564  -0.07362   0.00085
  37        2S         -0.01630  -0.16258  -0.09828  -0.10676   0.00204
  38        3PX         0.00195  -0.00040  -0.00118  -0.00187  -0.00005
  39        3PY         0.00176  -0.00110  -0.00107  -0.00140  -0.00004
  40        3PZ         0.00220  -0.00180  -0.00139  -0.00169  -0.00005
  41 5   H  1S          0.00013  -0.00186   0.00090  -0.00072   0.00011
  42        2S          0.00093  -0.00150   0.00154  -0.00116   0.00014
  43        3PX        -0.00012  -0.00032  -0.00002   0.00007   0.00001
  44        3PY        -0.00038  -0.00096  -0.00008   0.00019   0.00002
  45        3PZ         0.00019   0.00043   0.00007  -0.00011   0.00000
  46 6   H  1S          0.00013  -0.00176   0.00131  -0.00007   0.00012
  47        2S          0.00093  -0.00140   0.00195  -0.00054   0.00016
  48        3PX        -0.00010  -0.00027  -0.00003   0.00005   0.00000
  49        3PY        -0.00032  -0.00076  -0.00010   0.00018   0.00001
  50        3PZ         0.00028   0.00074   0.00004  -0.00015  -0.00001
                          11        12        13        14        15
  11        4YY         0.00074
  12        4ZZ         0.00073   0.00083
  13        4XY         0.00002  -0.00001   0.00006
  14        4XZ         0.00001  -0.00007   0.00008   0.00013
  15        4YZ         0.00000   0.00007   0.00002  -0.00001   0.00007
  16 2   N  1S          0.00018   0.00016   0.00001   0.00000  -0.00003
  17        2S         -0.00037  -0.00028  -0.00002   0.00000   0.00012
  18        2PX         0.00097   0.00198   0.00043  -0.00003   0.00105
  19        2PY        -0.00016   0.00292   0.00107  -0.00016   0.00324
  20        2PZ        -0.00005  -0.00215  -0.00071   0.00014  -0.00220
  21        3S         -0.00051  -0.00051  -0.00006   0.00000   0.00001
  22        3PX         0.00073   0.00155   0.00034  -0.00003   0.00085
  23        3PY        -0.00012   0.00207   0.00075  -0.00012   0.00230
  24        3PZ        -0.00005  -0.00154  -0.00052   0.00008  -0.00158
  25        4XX         0.00003   0.00005   0.00001   0.00000   0.00003
  26        4YY         0.00002   0.00002   0.00000   0.00000   0.00000
  27        4ZZ         0.00002   0.00004   0.00001   0.00000   0.00001
  28        4XY        -0.00001   0.00002   0.00001   0.00000   0.00003
  29        4XZ         0.00001  -0.00001   0.00000   0.00000  -0.00002
  30        4YZ         0.00001   0.00002   0.00000   0.00000   0.00001
  31 3   H  1S         -0.00158   0.00205  -0.00143  -0.00323   0.00204
  32        2S         -0.00178   0.00386  -0.00202  -0.00481   0.00328
  33        3PX        -0.00004  -0.00002  -0.00003  -0.00004  -0.00001
  34        3PY         0.00006   0.00002   0.00002   0.00004  -0.00002
  35        3PZ         0.00012   0.00004   0.00005   0.00009  -0.00003
  36 4   H  1S         -0.00070  -0.00056   0.00272   0.00307   0.00194
  37        2S         -0.00047  -0.00002   0.00413   0.00453   0.00313
  38        3PX        -0.00005  -0.00009   0.00004   0.00007   0.00000
  39        3PY        -0.00006  -0.00007   0.00004   0.00005   0.00002
  40        3PZ        -0.00008  -0.00008   0.00005   0.00007   0.00003
  41 5   H  1S          0.00028   0.00021  -0.00001  -0.00001  -0.00008
  42        2S          0.00040   0.00028  -0.00003  -0.00001  -0.00014
  43        3PX         0.00000   0.00001   0.00000   0.00000   0.00001
  44        3PY         0.00000   0.00002   0.00001   0.00000   0.00002
  45        3PZ         0.00001  -0.00001   0.00000   0.00000  -0.00001
  46 6   H  1S          0.00027   0.00020   0.00001   0.00003  -0.00008
  47        2S          0.00040   0.00026   0.00000   0.00004  -0.00015
  48        3PX         0.00000   0.00001   0.00000   0.00000   0.00001
  49        3PY         0.00000   0.00001   0.00001   0.00000   0.00002
  50        3PZ        -0.00001  -0.00002  -0.00001   0.00000  -0.00001
                          16        17        18        19        20
  16 2   N  1S          2.08074
  17        2S         -0.18542   0.58591
  18        2PX         0.02510  -0.06922   0.55204
  19        2PY        -0.00878   0.02636  -0.09233   0.32371
  20        2PZ         0.00164  -0.00586   0.04226   0.09394   0.38512
  21        3S         -0.25951   0.61617  -0.09015   0.02785  -0.00359
  22        3PX         0.01517  -0.04543   0.37349  -0.05604   0.02373
  23        3PY        -0.00527   0.01746  -0.06056   0.22184   0.05816
  24        3PZ         0.00096  -0.00394   0.02656   0.05747   0.25940
  25        4XX        -0.00907  -0.01484   0.00711   0.00082   0.00192
  26        4YY        -0.01164  -0.00886  -0.00293  -0.00135  -0.00347
  27        4ZZ        -0.01180  -0.00849   0.00231   0.00058   0.00052
  28        4XY        -0.00120   0.00284  -0.00326   0.00597   0.00434
  29        4XZ         0.00029  -0.00070   0.00394   0.00416   0.01006
  30        4YZ         0.00016  -0.00039   0.00650  -0.00355  -0.00271
  31 3   H  1S         -0.00067   0.00292   0.02867   0.08793  -0.05992
  32        2S         -0.00118   0.00504   0.04518   0.14191  -0.09713
  33        3PX         0.00001  -0.00002  -0.00015  -0.00035   0.00024
  34        3PY         0.00000  -0.00002  -0.00031  -0.00088   0.00062
  35        3PZ         0.00001  -0.00003  -0.00050  -0.00131   0.00092
  36 4   H  1S         -0.00067   0.00292   0.02872   0.08816  -0.05947
  37        2S         -0.00118   0.00504   0.04539   0.14278  -0.09557
  38        3PX         0.00000  -0.00001   0.00001   0.00008  -0.00003
  39        3PY        -0.00001   0.00002   0.00031   0.00081  -0.00054
  40        3PZ        -0.00001   0.00003   0.00052   0.00143  -0.00096
  41 5   H  1S         -0.00258   0.00121   0.14419  -0.15098  -0.13840
  42        2S          0.00770  -0.02526   0.21124  -0.20931  -0.18250
  43        3PX         0.00051  -0.00113   0.00147   0.00168   0.00255
  44        3PY        -0.00066   0.00142   0.00211  -0.00198  -0.00388
  45        3PZ        -0.00072   0.00149   0.00342  -0.00433  -0.00328
  46 6   H  1S         -0.00258   0.00122   0.19020   0.03571   0.15904
  47        2S          0.00771  -0.02528   0.27255   0.03965   0.21411
  48        3PX         0.00074  -0.00162  -0.00083  -0.00208  -0.00413
  49        3PY         0.00028  -0.00053  -0.00277   0.00079  -0.00225
  50        3PZ         0.00077  -0.00162  -0.00483  -0.00184  -0.00376
                          21        22        23        24        25
  21        3S          0.65069
  22        3PX        -0.05965   0.25298
  23        3PY         0.01826  -0.03643   0.15217
  24        3PZ        -0.00226   0.01452   0.03514   0.17486
  25        4XX        -0.01535   0.00483   0.00059   0.00123   0.00054
  26        4YY        -0.00876  -0.00197  -0.00089  -0.00230   0.00027
  27        4ZZ        -0.00852   0.00158   0.00041   0.00032   0.00034
  28        4XY         0.00308  -0.00215   0.00403   0.00285  -0.00005
  29        4XZ        -0.00079   0.00260   0.00272   0.00672   0.00011
  30        4YZ        -0.00063   0.00439  -0.00236  -0.00181   0.00005
  31 3   H  1S          0.00025   0.02308   0.06253  -0.04249   0.00075
  32        2S          0.00066   0.03660   0.10087  -0.06891   0.00119
  33        3PX         0.00000  -0.00012  -0.00025   0.00017   0.00000
  34        3PY         0.00001  -0.00024  -0.00063   0.00043  -0.00001
  35        3PZ         0.00000  -0.00038  -0.00094   0.00065  -0.00001
  36 4   H  1S          0.00025   0.02300   0.06222  -0.04294   0.00076
  37        2S          0.00066   0.03656   0.10077  -0.06897   0.00122
  38        3PX         0.00000   0.00000   0.00005  -0.00003   0.00000
  39        3PY         0.00000   0.00024   0.00057  -0.00039   0.00001
  40        3PZ        -0.00001   0.00040   0.00101  -0.00069   0.00001
  41 5   H  1S         -0.00358   0.09711  -0.10093  -0.09186   0.00026
  42        2S         -0.03357   0.14214  -0.14000  -0.12107   0.00113
  43        3PX        -0.00123   0.00100   0.00113   0.00169   0.00006
  44        3PY         0.00139   0.00147  -0.00128  -0.00261  -0.00003
  45        3PZ         0.00146   0.00228  -0.00292  -0.00216  -0.00003
  46 6   H  1S         -0.00360   0.12769   0.02319   0.10588   0.00258
  47        2S         -0.03362   0.18288   0.02552   0.14260   0.00424
  48        3PX        -0.00170  -0.00054  -0.00137  -0.00275   0.00001
  49        3PY        -0.00051  -0.00182   0.00057  -0.00153  -0.00002
  50        3PZ        -0.00156  -0.00328  -0.00124  -0.00248  -0.00003
                          26        27        28        29        30
  26        4YY         0.00030
  27        4ZZ         0.00022   0.00023
  28        4XY        -0.00007  -0.00003   0.00015
  29        4XZ        -0.00011   0.00004   0.00013   0.00030
  30        4YZ        -0.00001   0.00001  -0.00010  -0.00005   0.00011
  31 3   H  1S         -0.00004   0.00035   0.00071  -0.00054   0.00024
  32        2S         -0.00003   0.00059   0.00115  -0.00088   0.00038
  33        3PX         0.00000   0.00000   0.00000   0.00000   0.00000
  34        3PY         0.00000   0.00000  -0.00001   0.00001   0.00000
  35        3PZ         0.00000   0.00000  -0.00001   0.00001   0.00000
  36 4   H  1S         -0.00007   0.00037   0.00074  -0.00049   0.00022
  37        2S         -0.00009   0.00061   0.00120  -0.00078   0.00034
  38        3PX         0.00000   0.00000   0.00000   0.00000   0.00000
  39        3PY         0.00000   0.00000   0.00001   0.00000   0.00000
  40        3PZ         0.00000   0.00000   0.00001  -0.00001   0.00000
  41 5   H  1S          0.00045  -0.00012  -0.00387  -0.00350   0.00347
  42        2S          0.00088   0.00023  -0.00543  -0.00454   0.00486
  43        3PX        -0.00002   0.00003   0.00004   0.00008  -0.00001
  44        3PY         0.00000  -0.00002  -0.00006  -0.00009   0.00006
  45        3PZ        -0.00001  -0.00003  -0.00010  -0.00009   0.00009
  46 6   H  1S         -0.00269   0.00070   0.00114   0.00527   0.00088
  47        2S         -0.00331   0.00133   0.00125   0.00715   0.00140
  48        3PX         0.00007   0.00001  -0.00007  -0.00012   0.00003
  49        3PY         0.00004   0.00000   0.00000  -0.00006  -0.00002
  50        3PZ         0.00009   0.00000  -0.00005  -0.00013  -0.00002
                          31        32        33        34        35
  31 3   H  1S          0.13347
  32        2S          0.20361   0.31188
  33        3PX         0.00082   0.00116   0.00001
  34        3PY        -0.00173  -0.00259  -0.00001   0.00003
  35        3PZ        -0.00326  -0.00484  -0.00003   0.00005   0.00010
  36 4   H  1S         -0.02036  -0.02432  -0.00113   0.00041   0.00117
  37        2S         -0.02432  -0.02587  -0.00174   0.00058   0.00173
  38        3PX        -0.00140  -0.00214  -0.00002   0.00002   0.00003
  39        3PY        -0.00069  -0.00102  -0.00002   0.00001   0.00002
  40        3PZ        -0.00061  -0.00087  -0.00002   0.00001   0.00002
  41 5   H  1S         -0.00192  -0.00323   0.00000   0.00001   0.00000
  42        2S         -0.00351  -0.00591   0.00001   0.00002   0.00001
  43        3PX         0.00017   0.00027   0.00000   0.00000   0.00000
  44        3PY         0.00056   0.00090   0.00000  -0.00001  -0.00001
  45        3PZ        -0.00033  -0.00054   0.00000   0.00000   0.00000
  46 6   H  1S         -0.00234  -0.00426  -0.00001   0.00002   0.00002
  47        2S         -0.00426  -0.00758  -0.00001   0.00004   0.00005
  48        3PX         0.00018   0.00029   0.00000   0.00000   0.00000
  49        3PY         0.00053   0.00086   0.00000  -0.00001  -0.00001
  50        3PZ        -0.00038  -0.00060   0.00000   0.00000   0.00001
                          36        37        38        39        40
  36 4   H  1S          0.13347
  37        2S          0.20359   0.31181
  38        3PX         0.00174   0.00253   0.00004
  39        3PY         0.00196   0.00290   0.00003   0.00003
  40        3PZ         0.00273   0.00408   0.00004   0.00005   0.00006
  41 5   H  1S         -0.00234  -0.00427  -0.00001  -0.00001  -0.00003
  42        2S         -0.00426  -0.00758  -0.00002  -0.00002  -0.00005
  43        3PX         0.00018   0.00029   0.00000   0.00000   0.00000
  44        3PY         0.00054   0.00087   0.00000   0.00001   0.00001
  45        3PZ        -0.00035  -0.00058   0.00000   0.00000  -0.00001
  46 6   H  1S         -0.00191  -0.00322   0.00000   0.00000  -0.00001
  47        2S         -0.00350  -0.00590   0.00000   0.00000  -0.00002
  48        3PX         0.00016   0.00026   0.00000   0.00000   0.00000
  49        3PY         0.00052   0.00084   0.00000   0.00000   0.00001
  50        3PZ        -0.00039  -0.00063   0.00000   0.00000  -0.00001
                          41        42        43        44        45
  41 5   H  1S          0.12421
  42        2S          0.17089   0.23666
  43        3PX        -0.00101  -0.00127   0.00003
  44        3PY         0.00238   0.00317  -0.00003   0.00006
  45        3PZ         0.00324   0.00439  -0.00003   0.00006   0.00009
  46 6   H  1S         -0.01497  -0.01472   0.00152  -0.00079  -0.00037
  47        2S         -0.01471  -0.01086   0.00210  -0.00105  -0.00042
  48        3PX         0.00166   0.00227  -0.00003   0.00004   0.00004
  49        3PY        -0.00023  -0.00038  -0.00001   0.00001  -0.00001
  50        3PZ         0.00052   0.00064  -0.00004   0.00001   0.00001
                          46        47        48        49        50
  46 6   H  1S          0.12422
  47        2S          0.17087   0.23658
  48        3PX        -0.00201  -0.00262   0.00005
  49        3PY        -0.00167  -0.00231   0.00003   0.00003
  50        3PZ        -0.00322  -0.00434   0.00006   0.00004   0.00009
    Full Mulliken population analysis:
                           1         2         3         4         5
   1 1   C  1S          2.08401
   2        2S         -0.03671   0.59762
   3        2PX         0.00000   0.00000   0.31155
   4        2PY         0.00000   0.00000   0.00000   0.10120
   5        2PZ         0.00000   0.00000   0.00000   0.00000   0.27270
   6        3S         -0.05119   0.49992   0.00000   0.00000   0.00000
   7        3PX         0.00000   0.00000   0.12076   0.00000   0.00000
   8        3PY         0.00000   0.00000   0.00000   0.03781   0.00000
   9        3PZ         0.00000   0.00000   0.00000   0.00000   0.10207
  10        4XX        -0.00076  -0.01486   0.00000   0.00000   0.00000
  11        4YY        -0.00085  -0.01335   0.00000   0.00000   0.00000
  12        4ZZ        -0.00080  -0.01425   0.00000   0.00000   0.00000
  13        4XY         0.00000   0.00000   0.00000   0.00000   0.00000
  14        4XZ         0.00000   0.00000   0.00000   0.00000   0.00000
  15        4YZ         0.00000   0.00000   0.00000   0.00000   0.00000
  16 2   N  1S          0.00000   0.00000   0.00000   0.00000   0.00000
  17        2S          0.00000   0.00000   0.00000   0.00000   0.00000
  18        2PX         0.00000   0.00000   0.00000   0.00000   0.00000
  19        2PY         0.00000   0.00000   0.00000   0.00000   0.00000
  20        2PZ         0.00000   0.00000   0.00000   0.00000   0.00000
  21        3S          0.00000   0.00000   0.00000   0.00000   0.00000
  22        3PX         0.00000   0.00001   0.00006   0.00000   0.00000
  23        3PY         0.00000   0.00000  -0.00002   0.00000   0.00000
  24        3PZ         0.00000   0.00000   0.00001   0.00000   0.00000
  25        4XX         0.00000   0.00000   0.00000   0.00000   0.00000
  26        4YY         0.00000   0.00000   0.00000   0.00000   0.00000
  27        4ZZ         0.00000   0.00000   0.00000   0.00000   0.00000
  28        4XY         0.00000   0.00000   0.00000   0.00000   0.00000
  29        4XZ         0.00000   0.00000   0.00000   0.00000   0.00000
  30        4YZ         0.00000   0.00000   0.00000   0.00000   0.00000
  31 3   H  1S          0.00000   0.00003   0.00040   0.00043   0.00202
  32        2S          0.00005  -0.00159   0.00498   0.00481   0.02315
  33        3PX         0.00000   0.00000   0.00000   0.00000   0.00001
  34        3PY         0.00000   0.00000   0.00000   0.00000   0.00001
  35        3PZ         0.00000   0.00001   0.00001   0.00001   0.00005
  36 4   H  1S          0.00000   0.00003   0.00106   0.00073   0.00106
  37        2S          0.00005  -0.00160   0.01282   0.00834   0.01179
  38        3PX         0.00000   0.00001   0.00000   0.00001   0.00002
  39        3PY         0.00000   0.00001   0.00001   0.00001   0.00001
  40        3PZ         0.00000   0.00001   0.00002   0.00001   0.00002
  41 5   H  1S          0.00000   0.00000   0.00000   0.00000   0.00000
  42        2S          0.00000   0.00000   0.00000   0.00000   0.00000
  43        3PX         0.00000   0.00000   0.00000   0.00000   0.00000
  44        3PY         0.00000   0.00000   0.00000   0.00000   0.00000
  45        3PZ         0.00000   0.00000   0.00000   0.00000   0.00000
  46 6   H  1S          0.00000   0.00000   0.00000   0.00000   0.00000
  47        2S          0.00000   0.00000   0.00000   0.00000   0.00000
  48        3PX         0.00000   0.00000   0.00000   0.00000   0.00000
  49        3PY         0.00000   0.00000   0.00000   0.00000   0.00000
  50        3PZ         0.00000   0.00000   0.00000   0.00000   0.00000
                           6         7         8         9        10
   6        3S          0.63950
   7        3PX         0.00000   0.14447
   8        3PY         0.00000   0.00000   0.04353
   9        3PZ         0.00000   0.00000   0.00000   0.11769
  10        4XX        -0.01308   0.00000   0.00000   0.00000   0.00086
  11        4YY        -0.01169   0.00000   0.00000   0.00000   0.00026
  12        4ZZ        -0.01252   0.00000   0.00000   0.00000   0.00027
  13        4XY         0.00000   0.00000   0.00000   0.00000   0.00000
  14        4XZ         0.00000   0.00000   0.00000   0.00000   0.00000
  15        4YZ         0.00000   0.00000   0.00000   0.00000   0.00000
  16 2   N  1S          0.00000   0.00000   0.00000   0.00000   0.00000
  17        2S          0.00000   0.00000   0.00000   0.00000   0.00000
  18        2PX         0.00001   0.00009   0.00000   0.00000   0.00000
  19        2PY         0.00000  -0.00003   0.00000   0.00000   0.00000
  20        2PZ         0.00000   0.00001   0.00000   0.00000   0.00000
  21        3S          0.00001   0.00007   0.00000   0.00000   0.00000
  22        3PX         0.00023   0.00170  -0.00001   0.00002   0.00000
  23        3PY        -0.00006  -0.00049  -0.00003  -0.00001   0.00000
  24        3PZ         0.00002   0.00019   0.00000  -0.00004   0.00000
  25        4XX         0.00000   0.00000   0.00000   0.00000   0.00000
  26        4YY         0.00000   0.00000   0.00000   0.00000   0.00000
  27        4ZZ         0.00000   0.00000   0.00000   0.00000   0.00000
  28        4XY         0.00000   0.00000   0.00000   0.00000   0.00000
  29        4XZ         0.00000   0.00000   0.00000   0.00000   0.00000
  30        4YZ         0.00000   0.00000   0.00000   0.00000   0.00000
  31 3   H  1S          0.00033   0.00360   0.00374   0.01745   0.00000
  32        2S         -0.00401   0.01317   0.01226   0.05889  -0.00004
  33        3PX         0.00002   0.00001   0.00001   0.00004   0.00000
  34        3PY         0.00003   0.00001   0.00000   0.00009   0.00000
  35        3PZ         0.00013   0.00004   0.00009   0.00025   0.00000
  36 4   H  1S          0.00033   0.00940   0.00627   0.00914   0.00000
  37        2S         -0.00402   0.03352   0.02106   0.02976   0.00016
  38        3PX         0.00005   0.00000   0.00005   0.00010   0.00000
  39        3PY         0.00005   0.00005   0.00001   0.00008   0.00000
  40        3PZ         0.00008   0.00010   0.00008   0.00007   0.00000
  41 5   H  1S          0.00000   0.00000   0.00000   0.00000   0.00000
  42        2S          0.00000   0.00000   0.00000   0.00000   0.00000
  43        3PX         0.00000   0.00000   0.00000   0.00000   0.00000
  44        3PY         0.00000   0.00000   0.00000   0.00000   0.00000
  45        3PZ         0.00000   0.00000   0.00000   0.00000   0.00000
  46 6   H  1S          0.00000   0.00000   0.00000   0.00000   0.00000
  47        2S          0.00000   0.00000   0.00000   0.00000   0.00000
  48        3PX         0.00000   0.00000   0.00000   0.00000   0.00000
  49        3PY         0.00000   0.00000   0.00000   0.00000   0.00000
  50        3PZ         0.00000   0.00000   0.00000   0.00000   0.00000
                          11        12        13        14        15
  11        4YY         0.00074
  12        4ZZ         0.00024   0.00083
  13        4XY         0.00000   0.00000   0.00006
  14        4XZ         0.00000   0.00000   0.00000   0.00013
  15        4YZ         0.00000   0.00000   0.00000   0.00000   0.00007
  16 2   N  1S          0.00000   0.00000   0.00000   0.00000   0.00000
  17        2S          0.00000   0.00000   0.00000   0.00000   0.00000
  18        2PX         0.00000   0.00000   0.00000   0.00000   0.00000
  19        2PY         0.00000   0.00000   0.00000   0.00000   0.00000
  20        2PZ         0.00000   0.00000   0.00000   0.00000   0.00000
  21        3S          0.00000   0.00000   0.00000   0.00000   0.00000
  22        3PX         0.00000   0.00000   0.00000   0.00000   0.00000
  23        3PY         0.00000   0.00000   0.00000   0.00000   0.00000
  24        3PZ         0.00000   0.00000   0.00000   0.00000   0.00000
  25        4XX         0.00000   0.00000   0.00000   0.00000   0.00000
  26        4YY         0.00000   0.00000   0.00000   0.00000   0.00000
  27        4ZZ         0.00000   0.00000   0.00000   0.00000   0.00000
  28        4XY         0.00000   0.00000   0.00000   0.00000   0.00000
  29        4XZ         0.00000   0.00000   0.00000   0.00000   0.00000
  30        4YZ         0.00000   0.00000   0.00000   0.00000   0.00000
  31 3   H  1S         -0.00001   0.00002   0.00000   0.00002   0.00002
  32        2S         -0.00013   0.00041   0.00002   0.00011   0.00012
  33        3PX         0.00000   0.00000   0.00000   0.00000   0.00000
  34        3PY         0.00000   0.00000   0.00000   0.00000   0.00000
  35        3PZ         0.00000   0.00000   0.00000   0.00000   0.00000
  36 4   H  1S          0.00000   0.00000   0.00002   0.00002   0.00001
  37        2S         -0.00004   0.00000   0.00011   0.00016   0.00011
  38        3PX         0.00000   0.00000   0.00000   0.00000   0.00000
  39        3PY         0.00000   0.00000   0.00000   0.00000   0.00000
  40        3PZ         0.00000   0.00000   0.00000   0.00000   0.00000
  41 5   H  1S          0.00000   0.00000   0.00000   0.00000   0.00000
  42        2S          0.00000   0.00000   0.00000   0.00000   0.00000
  43        3PX         0.00000   0.00000   0.00000   0.00000   0.00000
  44        3PY         0.00000   0.00000   0.00000   0.00000   0.00000
  45        3PZ         0.00000   0.00000   0.00000   0.00000   0.00000
  46 6   H  1S          0.00000   0.00000   0.00000   0.00000   0.00000
  47        2S          0.00000   0.00000   0.00000   0.00000   0.00000
  48        3PX         0.00000   0.00000   0.00000   0.00000   0.00000
  49        3PY         0.00000   0.00000   0.00000   0.00000   0.00000
  50        3PZ         0.00000   0.00000   0.00000   0.00000   0.00000
                          16        17        18        19        20
  16 2   N  1S          2.08074
  17        2S         -0.04120   0.58591
  18        2PX         0.00000   0.00000   0.55204
  19        2PY         0.00000   0.00000   0.00000   0.32371
  20        2PZ         0.00000   0.00000   0.00000   0.00000   0.38512
  21        3S         -0.04460   0.47784   0.00000   0.00000   0.00000
  22        3PX         0.00000   0.00000   0.19395   0.00000   0.00000
  23        3PY         0.00000   0.00000   0.00000   0.11520   0.00000
  24        3PZ         0.00000   0.00000   0.00000   0.00000   0.13471
  25        4XX        -0.00046  -0.00944   0.00000   0.00000   0.00000
  26        4YY        -0.00059  -0.00564   0.00000   0.00000   0.00000
  27        4ZZ        -0.00059  -0.00540   0.00000   0.00000   0.00000
  28        4XY         0.00000   0.00000   0.00000   0.00000   0.00000
  29        4XZ         0.00000   0.00000   0.00000   0.00000   0.00000
  30        4YZ         0.00000   0.00000   0.00000   0.00000   0.00000
  31 3   H  1S          0.00000   0.00000   0.00000   0.00000   0.00000
  32        2S          0.00000   0.00000   0.00000   0.00000   0.00000
  33        3PX         0.00000   0.00000   0.00000   0.00000   0.00000
  34        3PY         0.00000   0.00000   0.00000   0.00000   0.00000
  35        3PZ         0.00000   0.00000   0.00000   0.00000   0.00000
  36 4   H  1S          0.00000   0.00000   0.00000   0.00000   0.00000
  37        2S          0.00000   0.00000   0.00000   0.00000   0.00000
  38        3PX         0.00000   0.00000   0.00000   0.00000   0.00000
  39        3PY         0.00000   0.00000   0.00000   0.00000   0.00000
  40        3PZ         0.00000   0.00000   0.00000   0.00000   0.00000
  41 5   H  1S          0.00000   0.00001   0.00069   0.00136   0.00154
[...]
  28        4XY         0.00000   0.00000   0.00015
  29        4XZ         0.00000   0.00000   0.00000   0.00030
  30        4YZ         0.00000   0.00000   0.00000   0.00000   0.00011
  31 3   H  1S          0.00000   0.00000   0.00000   0.00000   0.00000
  32        2S          0.00000   0.00000   0.00000   0.00000   0.00000
  33        3PX         0.00000   0.00000   0.00000   0.00000   0.00000
  34        3PY         0.00000   0.00000   0.00000   0.00000   0.00000
  35        3PZ         0.00000   0.00000   0.00000   0.00000   0.00000
  36 4   H  1S          0.00000   0.00000   0.00000   0.00000   0.00000
  37        2S          0.00000   0.00000   0.00000   0.00000   0.00000
  38        3PX         0.00000   0.00000   0.00000   0.00000   0.00000
  39        3PY         0.00000   0.00000   0.00000   0.00000   0.00000
  40        3PZ         0.00000   0.00000   0.00000   0.00000   0.00000
  41 5   H  1S          0.00001   0.00000   0.00004   0.00004   0.00008
  42        2S          0.00011   0.00003   0.00013   0.00013   0.00027
  43        3PX         0.00000   0.00000   0.00000   0.00000   0.00000
  44        3PY         0.00000   0.00000   0.00000   0.00000   0.00000
  45        3PZ         0.00000   0.00000   0.00000   0.00000   0.00000
  46 6   H  1S         -0.00002   0.00002   0.00001   0.00012   0.00001
  47        2S         -0.00036   0.00019   0.00003   0.00038   0.00005
  48        3PX         0.00000   0.00000   0.00000   0.00000   0.00000
  49        3PY         0.00000   0.00000   0.00000   0.00000   0.00000
  50        3PZ         0.00000   0.00000   0.00000   0.00000   0.00000
                          31        32        33        34        35
  31 3   H  1S          0.13347
  32        2S          0.13404   0.31188
  33        3PX         0.00000   0.00000   0.00001
  34        3PY         0.00000   0.00000   0.00000   0.00003
  35        3PZ         0.00000   0.00000   0.00000   0.00000   0.00010
  36 4   H  1S          0.00000  -0.00001   0.00000   0.00000   0.00000
  37        2S         -0.00001  -0.00026   0.00000   0.00000   0.00000
  38        3PX         0.00000   0.00000   0.00000   0.00000   0.00000
  39        3PY         0.00000   0.00000   0.00000   0.00000   0.00000
  40        3PZ         0.00000   0.00000   0.00000   0.00000   0.00000
  41 5   H  1S          0.00000   0.00000   0.00000   0.00000   0.00000
  42        2S          0.00000   0.00000   0.00000   0.00000   0.00000
  43        3PX         0.00000   0.00000   0.00000   0.00000   0.00000
  44        3PY         0.00000   0.00000   0.00000   0.00000   0.00000
  45        3PZ         0.00000   0.00000   0.00000   0.00000   0.00000
  46 6   H  1S          0.00000   0.00000   0.00000   0.00000   0.00000
  47        2S          0.00000   0.00000   0.00000   0.00000   0.00000
  48        3PX         0.00000   0.00000   0.00000   0.00000   0.00000
  49        3PY         0.00000   0.00000   0.00000   0.00000   0.00000
  50        3PZ         0.00000   0.00000   0.00000   0.00000   0.00000
                          36        37        38        39        40
  36 4   H  1S          0.13347
  37        2S          0.13402   0.31181
  38        3PX         0.00000   0.00000   0.00004
  39        3PY         0.00000   0.00000   0.00000   0.00003
  40        3PZ         0.00000   0.00000   0.00000   0.00000   0.00006
  41 5   H  1S          0.00000   0.00000   0.00000   0.00000   0.00000
  42        2S          0.00000   0.00000   0.00000   0.00000   0.00000
  43        3PX         0.00000   0.00000   0.00000   0.00000   0.00000
  44        3PY         0.00000   0.00000   0.00000   0.00000   0.00000
  45        3PZ         0.00000   0.00000   0.00000   0.00000   0.00000
  46 6   H  1S          0.00000   0.00000   0.00000   0.00000   0.00000
  47        2S          0.00000   0.00000   0.00000   0.00000   0.00000
  48        3PX         0.00000   0.00000   0.00000   0.00000   0.00000
  49        3PY         0.00000   0.00000   0.00000   0.00000   0.00000
  50        3PZ         0.00000   0.00000   0.00000   0.00000   0.00000
                          41        42        43        44        45
  41 5   H  1S          0.12421
  42        2S          0.11250   0.23666
  43        3PX         0.00000   0.00000   0.00003
  44        3PY         0.00000   0.00000   0.00000   0.00006
  45        3PZ         0.00000   0.00000   0.00000   0.00000   0.00009
  46 6   H  1S          0.00000  -0.00003   0.00000   0.00000   0.00000
  47        2S         -0.00003  -0.00032   0.00000   0.00000   0.00000
  48        3PX         0.00000   0.00000   0.00000   0.00000   0.00000
  49        3PY         0.00000   0.00000   0.00000   0.00000   0.00000
  50        3PZ         0.00000   0.00000   0.00000   0.00000   0.00000
                          46        47        48        49        50
  46 6   H  1S          0.12422
  47        2S          0.11248   0.23658
  48        3PX         0.00000   0.00000   0.00005
  49        3PY         0.00000   0.00000   0.00000   0.00003
  50        3PZ         0.00000   0.00000   0.00000   0.00000   0.00009
     Gross orbital populations:
                           1
   1 1   C  1S          1.99379
   2        2S          1.01529
   3        2PX         0.45165
   4        2PY         0.15336
   5        2PZ         0.41291
   6        3S          1.04414
   7        3PX         0.32667
   8        3PY         0.12486
   9        3PZ         0.33561
  10        4XX        -0.02718
  11        4YY        -0.02482
  12        4ZZ        -0.02580
  13        4XY         0.00022
  14        4XZ         0.00044
  15        4YZ         0.00034
  16 2   N  1S          1.99355
  17        2S          0.99642
  18        2PX         0.76943
  19        2PY         0.45391
  20        2PZ         0.55220
  21        3S          1.04301
  22        3PX         0.53063
  23        3PY         0.31959
  24        3PZ         0.42344
  25        4XX        -0.01878
  26        4YY        -0.01189
  27        4ZZ        -0.01105
  28        4XY         0.00036
  29        4XZ         0.00098
  30        4YZ         0.00053
  31 3   H  1S          0.29553
  32        2S          0.55784
  33        3PX         0.00011
  34        3PY         0.00018
  35        3PZ         0.00069
  36 4   H  1S          0.29554
  37        2S          0.55779
  38        3PX         0.00028
  39        3PY         0.00025
  40        3PZ         0.00044
  41 5   H  1S          0.27312
  42        2S          0.45921
  43        3PX         0.00021
  44        3PY         0.00049
  45        3PZ         0.00075
  46 6   H  1S          0.27317
  47        2S          0.45914
  48        3PX         0.00046
  49        3PY         0.00022
  50        3PZ         0.00078
          Condensed to atoms (all electrons):
               1          2          3          4          5          6
     1  C    5.497524   0.001735   0.141082   0.141140  -0.000001  -0.000001
     2  N    0.001735   6.744231  -0.000012  -0.000011   0.148144   0.148213
     3  H    0.141082  -0.000012   0.713556  -0.000279   0.000000   0.000000
     4  H    0.141140  -0.000011  -0.000279   0.713463   0.000000   0.000000
     5  H   -0.000001   0.148144   0.000000   0.000000   0.586039  -0.000389
     6  H   -0.000001   0.148213   0.000000   0.000000  -0.000389   0.585948
 Mulliken charges:
               1
     1  C    0.218521
     2  N   -0.042301
     3  H    0.145654
     4  H    0.145689
     5  H    0.266207
     6  H    0.266230
 Sum of Mulliken charges =   1.00000
 Mulliken charges with hydrogens summed into heavy atoms:
               1
     1  C    0.509864
     2  N    0.490136
 Electronic spatial extent (au):  <R**2>=           1027.5987
 Charge=              1.0000 electrons
 Dipole moment (field-independent basis, Debye):
    X=            -16.1108    Y=              1.4025    Z=              1.5890  Tot=             16.2496
 Quadrupole moment (field-independent basis, Debye-Ang):
   XX=             75.4918   YY=             -8.6584   ZZ=             -2.8598
   XY=             -8.3836   XZ=             -6.2596   YZ=              7.0278
 Traceless Quadrupole moment (field-independent basis, Debye-Ang):
   XX=             54.1672   YY=            -29.9829   ZZ=            -24.1843
   XY=             -8.3836   XZ=             -6.2596   YZ=              7.0278
 Octapole moment (field-independent basis, Debye-Ang**2):
  XXX=           -387.6141  YYY=            -13.4370  ZZZ=             -0.8633  XYY=             30.1251
  XXY=             46.8476  XXZ=             32.0290  XZZ=             14.9954  YZZ=              1.0956
  YYZ=             -0.1644  XYZ=            -22.6776
 Hexadecapole moment (field-independent basis, Debye-Ang**3):
 XXXX=           1724.7738 YYYY=            -46.4863 ZZZZ=            -35.1150 XXXY=           -218.8389
 XXXZ=           -129.7622 YYYX=             60.1349 YYYZ=            -12.4846 ZZZX=              2.7803
 ZZZY=              5.2572 XXYY=           -148.7150 XXZZ=            -62.6123 YYZZ=             -3.2111
 XXYZ=            124.8532 YYXZ=             -7.5606 ZZXY=             -9.5036
 N-N= 1.532205385030D+01 E-N=-2.458888334898D+02  KE= 9.230717369064D+01
 Orbital energies and kinetic energies (alpha):
                                 1                 2
   1         O               -14.697663         21.979653
   2         O               -10.596033         15.900602
   3         O                -0.933147          2.269056
   4         O                -0.768867          1.650490
   5         O                -0.532779          1.097846
   6         O                -0.488572          1.375592
   7         O                -0.483868          0.747180
   8         O                -0.433283          1.133168
   9         V                -0.408616          1.562055
  10         V                -0.352267          1.198830
  11         V                -0.350743          1.180758
  12         V                -0.330408          1.028886
  13         V                -0.304560          1.371679
  14         V                -0.284707          1.156860
  15         V                 0.320616          1.950471
  16         V                 0.329500          1.952637
  17         V                 0.405867          2.014446
  18         V                 0.427553          1.854646
  19         V                 0.470998          2.584665
  20         V                 0.493306          2.268052
  21         V                 0.538549          2.342446
  22         V                 0.539390          2.212077
  23         V                 0.613852          2.118120
  24         V                 0.614406          1.760522
  25         V                 0.624054          1.841904
  26         V                 0.641970          1.824346
  27         V                 1.441027          2.691457
  28         V                 1.442038          2.799588
  29         V                 1.442214          2.798950
  30         V                 1.443378          2.790709
  31         V                 1.449448          2.783169
  32         V                 1.449953          2.785528
  33         V                 1.453289          2.694956
  34         V                 1.489124          2.787137
  35         V                 1.501504          2.796683
  36         V                 1.505880          2.794284
  37         V                 1.789491          2.763550
  38         V                 1.790402          2.762623
  39         V                 1.802359          2.777515
  40         V                 1.802906          2.781630
  41         V                 1.815828          2.751101
  42         V                 1.816512          2.751926
  43         V                 1.823405          2.761159
  44         V                 1.825828          2.762823
  45         V                 1.923814          2.936970
  46         V                 1.977480          2.957385
  47         V                 2.027171          3.170801
  48         V                 2.074072          3.158365
  49         V                 3.109840          8.681870
  50         V                 3.588231          9.479153
 Total kinetic energy from orbitals= 9.230717369064D+01
 Calling FoFJK, ICntrl=      2127 FMM=F ISym2X=0 I1Cent= 0 IOpClX= 0 NMat=1 NMatS=1 NMatT=0.
 -------------------------------------------------------------------
 Center     Atomic                   Forces (Hartrees/Bohr)
 Number     Number              X              Y              Z
 -------------------------------------------------------------------
      1        6          -0.026950097   -0.004989278    0.007196778
      2        7           0.039875280   -0.008985135   -0.000491738
      3        1           0.007500388   -0.022683826   -0.043784534
      4        1           0.019907298    0.027011154    0.036934582
      5        1          -0.011813556    0.038661423    0.053995583
      6        1          -0.028519313   -0.029014338   -0.053850671
 -------------------------------------------------------------------
 Cartesian Forces:  Max     0.053995583 RMS     0.030328605

 GradGradGradGradGradGradGradGradGradGradGradGradGradGradGradGradGradGrad
 Berny optimization.
 Search for a local minimum.
 Step number   1 out of a maximum of    2
 All quantities printed in internal units (Hartrees-Bohrs-Radians)
 Second derivative matrix not updated -- first step.
 The second derivative matrix:
                          X1        Y1        Z1        X2        Y2
           X1           1.00000
           Y1           0.00000   1.00000
           Z1           0.00000   0.00000   1.00000
           X2           0.00000   0.00000   0.00000   1.00000
           Y2           0.00000   0.00000   0.00000   0.00000   1.00000
           Z2           0.00000   0.00000   0.00000   0.00000   0.00000
           X3           0.00000   0.00000   0.00000   0.00000   0.00000
           Y3           0.00000   0.00000   0.00000   0.00000   0.00000
           Z3           0.00000   0.00000   0.00000   0.00000   0.00000
           X4           0.00000   0.00000   0.00000   0.00000   0.00000
           Y4           0.00000   0.00000   0.00000   0.00000   0.00000
           Z4           0.00000   0.00000   0.00000   0.00000   0.00000
           X5           0.00000   0.00000   0.00000   0.00000   0.00000
           Y5           0.00000   0.00000   0.00000   0.00000   0.00000
           Z5           0.00000   0.00000   0.00000   0.00000   0.00000
           X6           0.00000   0.00000   0.00000   0.00000   0.00000
           Y6           0.00000   0.00000   0.00000   0.00000   0.00000
           Z6           0.00000   0.00000   0.00000   0.00000   0.00000
                          Z2        X3        Y3        Z3        X4
           Z2           1.00000
           X3           0.00000   1.00000
           Y3           0.00000   0.00000   1.00000
           Z3           0.00000   0.00000   0.00000   1.00000
           X4           0.00000   0.00000   0.00000   0.00000   1.00000
           Y4           0.00000   0.00000   0.00000   0.00000   0.00000
           Z4           0.00000   0.00000   0.00000   0.00000   0.00000
           X5           0.00000   0.00000   0.00000   0.00000   0.00000
           Y5           0.00000   0.00000   0.00000   0.00000   0.00000
           Z5           0.00000   0.00000   0.00000   0.00000   0.00000
           X6           0.00000   0.00000   0.00000   0.00000   0.00000
           Y6           0.00000   0.00000   0.00000   0.00000   0.00000
           Z6           0.00000   0.00000   0.00000   0.00000   0.00000
                          Y4        Z4        X5        Y5        Z5
           Y4           1.00000
           Z4           0.00000   1.00000
           X5           0.00000   0.00000   1.00000
           Y5           0.00000   0.00000   0.00000   1.00000
           Z5           0.00000   0.00000   0.00000   0.00000   1.00000
           X6           0.00000   0.00000   0.00000   0.00000   0.00000
           Y6           0.00000   0.00000   0.00000   0.00000   0.00000
           Z6           0.00000   0.00000   0.00000   0.00000   0.00000
                          X6        Y6        Z6
           X6           1.00000
           Y6           0.00000   1.00000
           Z6           0.00000   0.00000   1.00000
 ITU=  0
     Eigenvalues ---    1.00000   1.00000   1.00000   1.00000   1.00000
     Eigenvalues ---    1.00000   1.00000   1.00000   1.00000   1.00000
     Eigenvalues ---    1.00000   1.00000   1.00000   1.00000   1.00000
     Eigenvalues ---    1.00000   1.00000   1.00000
 Angle between quadratic step and forces=   0.00 degrees.
 Linear search not attempted -- first point.
 TrRot=  0.000000  0.000001  0.000001  0.000000  0.000000  0.000000
 Variable       Old X    -DE/DX   Delta X   Delta X   Delta X     New X
                                 (Linear)    (Quad)   (Total)
    X1      -10.45740  -0.02695   0.00000  -0.02695  -0.02695 -10.48435
    Y1        1.34645  -0.00499   0.00000  -0.00499  -0.00499   1.34146
    Z1        0.76668   0.00720   0.00000   0.00720   0.00720   0.77388
    X2       -2.78871   0.03988   0.00000   0.03988   0.03988  -2.74883
    Y2        0.34123  -0.00899   0.00000  -0.00899  -0.00898   0.33224
    Z2        0.20835  -0.00049   0.00000  -0.00049  -0.00049   0.20786
    X3      -11.56272   0.00750   0.00000   0.00750   0.00750 -11.55522
    Y3        3.10645  -0.02268   0.00000  -0.02268  -0.02268   3.08377
    Z3        4.32666  -0.04378   0.00000  -0.04378  -0.04379   4.28287
    X4      -12.54227   0.01991   0.00000   0.01991   0.01991 -12.52237
    Y4       -0.82046   0.02701   0.00000   0.02701   0.02701  -0.79345
    Z4       -2.05211   0.03693   0.00000   0.03693   0.03693  -2.01517
    X5       -1.61538  -0.01181   0.00000  -0.01181  -0.01181  -1.62719
    Y5       -1.86673   0.03866   0.00000   0.03866   0.03866  -1.82807
    Z5       -2.52151   0.05400   0.00000   0.05400   0.05400  -2.46751
    X6       -0.75694  -0.02852   0.00000  -0.02852  -0.02852  -0.78546
    Y6        1.61550  -0.02901   0.00000  -0.02901  -0.02901   1.58649
    Z6        3.02692  -0.05385   0.00000  -0.05385  -0.05385   2.97307
         Item               Value     Threshold  Converged?
 Maximum Force            0.053996     0.000450     NO 
 RMS     Force            0.030329     0.000300     NO 
 Maximum Displacement     0.053996     0.001800     NO 
 RMS     Displacement     0.030329     0.001200     NO 
 Predicted change in Energy=-8.278418D-03
 GradGradGradGradGradGradGradGradGradGradGradGradGradGradGradGradGradGrad

 1\1\GINC-EAM\Force\RB3LYP\6-31G(d,p)\C1H4N1(1+)\DULIKAI\15-Nov-2014\0\
 \# force b3lyp/6-31G** scf=(tight,maxcycle=10000) nosymm pop=full\\[0]
  [0]\\1,1\C,-5.5338175,0.712513,0.4057093\N,-1.4757217,0.1805686,0.110
 2563\H,-6.1187275,1.6438646,2.2895698\H,-6.6370856,-0.4341665,-1.08592
 86\H,-0.8548232,-0.9878324,-1.3343232\H,-0.4005556,0.8548868,1.6017769
 \\Version=EM64L-G09RevD.01\HF=-94.0708658\RMSD=4.306e-09\RMSF=3.033e-0
 2\Dipole=0.0581492,-0.1836492,0.1052553\Quadrupole=40.2720045,-22.2915
 67,-17.9804375,-6.2330097,-4.6538333,5.2250107\PG=C01 [X(C1H4N1)]\\@


 NOTHING WILL BE ATTEMPTED IF ALL POSSIBLE OBJECTIONS
 MUST FIRST BE OVERCOME.

                               -- THE GOLDEN PRINCIPLE,
                    PAUL DICKSON'S "THE OFFICIAL RULES"
 Job cpu time:       0 days  0 hours  0 minutes  7.3 seconds.
 File lengths (MBytes):  RWF=      5 Int=      0 D2E=      0 Chk=      1 Scr=      1
 Normal termination of Gaussian 09 at Sat Nov 15 23:39:13 2014.
