 Entering Gaussian System, Link 0=g09
 Input=ao.gjf
 Output=ao.log
 Initial command:
 /opt/g09_D01_em64t/g09/l1.exe "/tmp/Gau-1664.inp" -scrdir="/tmp/"
 Entering Link 1 = /opt/g09_D01_em64t/g09/l1.exe PID=      1665.
  
 Copyright (c) 1988,1990,1992,1993,1995,1998,2003,2009,2013,
            Gaussian, Inc.  All Rights Reserved.
  
 This is part of the Gaussian(R) 09 program.  It is based on
 the Gaussian(R) 03 system (copyright 2003, Gaussian, Inc.),
 the Gaussian(R) 98 system (copyright 1998, Gaussian, Inc.),
 the Gaussian(R) 94 system (copyright 1995, Gaussian, Inc.),
 the Gaussian 92(TM) system (copyright 1992, Gaussian, Inc.),
 the Gaussian 90(TM) system (copyright 1990, Gaussian, Inc.),
 the Gaussian 88(TM) system (copyright 1988, Gaussian, Inc.),
 the Gaussian 86(TM) system (copyright 1986, Carnegie Mellon
 University), and the Gaussian 82(TM) system (copyright 1983,
 Carnegie Mellon University). Gaussian is a federally registered
 trademark of Gaussian, Inc.
  
 This software contains proprietary and confidential information,
 including trade secrets, belonging to Gaussian, Inc.
  
 This software is provided under written license and may be
 used, copied, transmitted, or stored only in accord with that
 written license.
  
 The following legend is applicable only to US Government
 contracts under FAR:
  
                    RESTRICTED RIGHTS LEGEND
  
 Use, reproduction and disclosure by the US Government is
 subject to restrictions as set forth in subparagraphs (a)
 and (c) of the Commercial Computer Software - Restricted
 Rights clause in FAR 52.227-19.
  
 Gaussian, Inc.
 340 Quinnipiac St., Bldg. 40, Wallingford CT 06492
  
  
 ---------------------------------------------------------------
 Warning -- This program may not be used in any manner that
 competes with the business of Gaussian, Inc. or will provide
 assistance to any competitor of Gaussian, Inc.  The licensee
 of this program is prohibited from giving any competitor of
 Gaussian, Inc. access to this program.  By using this program,
 the user acknowledges that Gaussian, Inc. is engaged in the
 business of creating and licensing software in the field of
 computational chemistry and represents and warrants to the
 licensee that it is not a competitor of Gaussian, Inc. and that
 it will not use this program in any manner prohibited above.
 ---------------------------------------------------------------
  

 Cite this work as:
 Gaussian 09, Revision D.01,
 M. J. Frisch, G. W. Trucks, H. B. Schlegel, G. E. Scuseria, 
 M. A. Robb, J. R. Cheeseman, G. Scalmani, V. Barone, B. Mennucci, 
 G. A. Petersson, H. Nakatsuji, M. Caricato, X. Li, H. P. Hratchian, 
 A. F. Izmaylov, J. Bloino, G. Zheng, J. L. Sonnenberg, M. Hada, 
 M. Ehara, K. Toyota, R. Fukuda, J. Hasegawa, M. Ishida, T. Nakajima, 
 Y. Honda, O. Kitao, H. Nakai, T. Vreven, J. A. Montgomery, Jr., 
 J. E. Peralta, F. Ogliaro, M. Bearpark, J. J. Heyd, E. Brothers, 
 K. N. Kudin, V. N. Staroverov, T. Keith, R. Kobayashi, J. Normand, 
 K. Raghavachari, A. Rendell, J. C. Burant, S. S. Iyengar, J. Tomasi, 
 M. Cossi, N. Rega, J. M. Millam, M. Klene, J. E. Knox, J. B. Cross, 
 V. Bakken, C. Adamo, J. Jaramillo, R. Gomperts, R. E. Stratmann, 
 O. Yazyev, A. J. Austin, R. Cammi, C. Pomelli, J. W. Ochterski, 
 R. L. Martin, K. Morokuma, V. G. Zakrzewski, G. A. Voth, 
 P. Salvador, J. J. Dannenberg, S. Dapprich, A. D. Daniels, 
 O. Farkas, J. B. Foresman, J. V. Ortiz, J. Cioslowski, 
 and D. J. Fox, Gaussian, Inc., Wallingford CT, 2013.
 
 ******************************************
 Gaussian 09:  EM64L-G09RevD.01 24-Apr-2013
                15-Mar-2015 
 ******************************************
 %chk=ao.chk
 %mem=1GB
 %nproc=2
 Will use up to    2 processors via shared memory.
 %nproclinda=1
 Will use up to    1 processors via Linda.
 ----------------------------------------------------------------------
 #p oniom(b3lyp/6-31g(d,p):uff)=(embed,inputfiles) nosymm iop(2/12=3,3/
 33=1) guess=only pop=full
 ----------------------------------------------------------------------
 1/38=1,52=12,56=1,61=3,64=2,74=500/1;
 2/12=3,15=1,17=6,18=5,40=1/2;
 1/38=1,52=12,53=3172,61=3,64=2,74=500,118=1/20;
 3/5=30,11=9,16=1,25=1,30=1,33=1,41=10200000,43=2,89=1/1;
 1/52=12,53=2032,61=3,74=500,118=1/20;
 3/5=1,6=6,7=101,11=2,16=1,25=1,30=1,33=1,74=-5,89=1/1,2;
 4//1;
 6/7=3,28=1/1;
 1/52=12,53=1022,61=3,64=2,74=500,118=1/20;
 3/5=30,11=9,16=1,25=1,30=1,33=1,41=10200000,43=2,89=1/1;
 1/52=12,53=3014,61=3,64=2,74=500/20;
 99/5=2/99;
 Leave Link    1 at Sun Mar 15 18:36:10 2015, MaxMem=   134217728 cpu:         0.1
 (Enter /opt/g09_D01_em64t/g09/l101.exe)
 ------
 ch2nh2
 ------
 Symbolic Z-matrix:
 Charge =  0 Multiplicity = 1 for low   level calculation on real  system.
 Charge =  0 Multiplicity = 1 for high  level calculation on model system.
 Charge =  0 Multiplicity = 1 for low   level calculation on model system.
 O-O_3--0.834000      0    -0.36871  -2.19424   0.       H 
 H-H_-0.417000        0     0.59129  -2.19424   0.       H 
 H-H_-0.417000        0    -0.68916  -1.28931   0.       H 
 O-O_3--0.834000      0    -2.34712   0.34173   0.       M 
 H-H_-0.417000        0    -1.38712   0.34173   0.       M 
 H-H_-0.417000        0    -2.66758   1.24666   0.       M 
 
 NAtoms=      6 NQM=        3 NQMF=       0 NMMI=      3 NMMIF=      0
                NMic=       0 NMicF=      0.
                    Isotopes and Nuclear Properties:
 (Nuclear quadrupole moments (NQMom) in fm**2, nuclear magnetic moments (NMagM)
  in nuclear magnetons)

  Atom         1           2           3           4           5           6
 IAtWgt=          16           1           1          16           1           1
 AtmWgt=  15.9949146   1.0078250   1.0078250  15.9949146   1.0078250   1.0078250
 NucSpn=           0           1           1           0           1           1
 AtZEff=   0.0000000   0.0000000   0.0000000   0.0000000   0.0000000   0.0000000
 NQMom=    0.0000000   0.0000000   0.0000000   0.0000000   0.0000000   0.0000000
 NMagM=    0.0000000   2.7928460   2.7928460   0.0000000   2.7928460   2.7928460
 AtZNuc=   8.0000000   1.0000000   1.0000000   8.0000000   1.0000000   1.0000000
 Generating MM parameters.
 Include all MM classes

 MM sanity checks:
 All charges sum to:                0.00000000
 Charges of atoms sum to:           0.00000000
 Layer 1 (S) has      3 atoms and charge   0.00000000 sum=   0.00000000
 Layer 2 (R) adds     3 atoms and charge   0.00000000 sum=   0.00000000
 MMInit generated parameter data with length LenPar=         649.
 MM Charge=              0.0000 electrons
 MM Dipole moment (Debye):
    X=              2.5619    Y=              3.6251    Z=              0.0000  Tot=              4.4390
 MM Quadrupole moment (Debye-Ang):
   XX=             -2.8546   YY=             -3.4350   ZZ=              0.0000
   XY=             -8.4572   XZ=              0.0000   YZ=              0.0000
 MM Traceless Quadrupole moment (Debye-Ang):
   XX=             -0.7581   YY=             -1.3385   ZZ=              2.0965
   XY=             -8.4572   XZ=              0.0000   YZ=              0.0000
 MM Octapole moment (Debye-Ang**2):
  XXX=              8.3899  YYY=             20.6684  ZZZ=              0.0000  XYY=              2.9885
  XXY=              9.9759  XXZ=              0.0000  XZZ=              0.0000  YZZ=              0.0000
  YYZ=              0.0000  XYZ=              0.0000
 MM Hexadecapole moment (Debye-Ang**3):
 XXXX=            -12.1133 YYYY=            -36.0856 ZZZZ=              0.0000 XXXY=            -32.0291
 XXXZ=              0.0000 YYYX=            -35.2452 YYYZ=              0.0000 ZZZX=              0.0000
 ZZZY=              0.0000 XXYY=             22.3553 XXZZ=              0.0000 YYZZ=              0.0000
 XXYZ=              0.0000 YYXZ=              0.0000 ZZXY=              0.0000
 Leave Link  101 at Sun Mar 15 18:36:10 2015, MaxMem=   134217728 cpu:         0.2
 (Enter /opt/g09_D01_em64t/g09/l202.exe)
                          Input orientation:                          
 ---------------------------------------------------------------------
 Center     Atomic      Atomic             Coordinates (Angstroms)
 Number     Number       Type             X           Y           Z
 ---------------------------------------------------------------------
      1          8    10081003       -0.368705   -2.194245    0.000000
      2          1    10011000        0.591295   -2.194245    0.000000
      3          1    10011000       -0.689160   -1.289309    0.000000
      4          8    10081003       -2.347122    0.341727    0.000000
      5          1    10011000       -1.387122    0.341727    0.000000
      6          1    10011000       -2.667577    1.246662    0.000000
 ---------------------------------------------------------------------
                    Distance matrix (angstroms):
                    1          2          3          4          5
     1  O    0.000000
     2  H    0.960000   0.000000
     3  H    0.960000   1.567952   0.000000
     4  O    3.216409   3.881423   2.325751   0.000000
     5  H    2.732823   3.216409   1.774099   0.960000   0.000000
     6  H    4.138194   4.739207   3.216409   0.960000   1.567952
                    6
     6  H    0.000000
 Symmetry turned off by external request.
 Stoichiometry    H4O2
 Framework group  CS[SG(H4O2)]
 Deg. of freedom     9
 Full point group                 CS      NOp   2
 Rotational constants (GHZ):    416.7917648      5.2904637      5.2241519
 Leave Link  202 at Sun Mar 15 18:36:10 2015, MaxMem=   134217728 cpu:         0.0
 (Enter /opt/g09_D01_em64t/g09/l120.exe)
 ONIOM: saving gridpoint 17
 ONIOM: restoring gridpoint  3 on chk file.
 ONIOM: generating point  3 -- low level on real system.
 ChrgS2: IScale=     5     5     5     5     0     0 (distance 6..1 bonds)
 ChrgS2:  Scale=  1.00  1.00  1.00  1.00  0.00  0.00 (distance 6..1 bonds)

 --------------------------------------------------------------------------------
 #P Test IOp(2/15=1,5/32=2,5/38=1) UFF

 ch2nh2
 Point  3 -- low level on real system.

 0,1
  O-O_3--0.834000                                  -0.368705030000     -2.194244570000      0.000000000000
  H-H_-0.417000                                     0.591294970000     -2.194244570000      0.000000000000
  H-H_-0.417000                                    -0.689159620000     -1.289308740000      0.000000000000
  O-O_3--0.834000                                  -2.347122270000      0.341726610000      0.000000000000
  H-H_-0.417000                                    -1.387122270000      0.341726610000      0.000000000000
  H-H_-0.417000                                    -2.667576860000      1.246662440000      0.000000000000

 1 2 1.000 3 1.000
 2 1 1.000
 3 1 1.000
 4 5 1.000 6 1.000
 5 4 1.000
 6 4 1.000
 
 --------------------------------------------------------------------------------

 Leave Link  120 at Sun Mar 15 18:36:10 2015, MaxMem=   134217728 cpu:         0.0
 (Enter /opt/g09_D01_em64t/g09/l301.exe)
 Standard basis: Dummy (5D, 7F)
                         Coordinates in L301:                         
 ---------------------------------------------------------------------
 Center     Atomic      Atomic             Coordinates (Angstroms)
 Number     Number       Type             X           Y           Z
 ---------------------------------------------------------------------
      1          8    10081003       -0.368705   -2.194245    0.000000
      2          1    10011000        0.591295   -2.194245    0.000000
      3          1    10011000       -0.689160   -1.289309    0.000000
      4          8    10081003       -2.347122    0.341727    0.000000
      5          1    10011000       -1.387122    0.341727    0.000000
      6          1    10011000       -2.667577    1.246662    0.000000
 ---------------------------------------------------------------------
 DispEFB:  Using electric field lambdas:
  0.100000000000D+01  0.100000000000D+01  0.100000000000D+01  0.100000000000D+01  0.100000000000D+01
  0.100000000000D+01
 LdAtmC:  AtmChg=     2.000000     1.000000     1.000000     2.000000     1.000000
 LdAtmC:  AtmChg=     1.000000
 AtZEff=     -6.0000000     -1.0000000     -1.0000000     -6.0000000     -1.0000000
 AtZEff=     -1.0000000
     6 basis functions,     6 primitive gaussians,     6 cartesian basis functions
     4 alpha electrons        4 beta electrons
       nuclear repulsion energy         7.8526448410 Hartrees.
 IS=     1 IAt=     1 ISR=     1 T=0 IP=      1 IndIP=      1 IndIPD=      0 C=  7.127055D-01  0.000000D+00                             NZ=T
 IS=     2 IAt=     2 ISR=     1 T=0 IP=      1 IndIP=      2 IndIPD=      0 C=  7.127055D-01  0.000000D+00                             NZ=T
 IS=     3 IAt=     3 ISR=     1 T=0 IP=      1 IndIP=      3 IndIPD=      0 C=  7.127055D-01  0.000000D+00                             NZ=T
 IS=     4 IAt=     4 ISR=     1 T=0 IP=      1 IndIP=      4 IndIPD=      0 C=  7.127055D-01  0.000000D+00                             NZ=T
 IS=     5 IAt=     5 ISR=     1 T=0 IP=      1 IndIP=      5 IndIPD=      0 C=  7.127055D-01  0.000000D+00                             NZ=T
 IS=     6 IAt=     6 ISR=     1 T=0 IP=      1 IndIP=      6 IndIPD=      0 C=  7.127055D-01  0.000000D+00                             NZ=T
 IExCor=    0 DFT=F Ex=HF Corr=None ExCW=0 ScaHFX=  1.000000
 ScaDFX=  1.000000  1.000000  1.000000  1.000000 ScalE2=  1.000000  1.000000
 IRadAn=      0 IRanWt=     -1 IRanGd=            0 ICorTp=0 IEmpDi=  4
 NAtoms=    6 NActive=    6 NUniq=    6 SFac= 1.00D+00 NAtFMM=   60 NAOKFM=F Big=F
 Integral buffers will be    131072 words long.
 Raffenetti 1 integral format.
 Two-electron integral symmetry is turned off.
 Leave Link  301 at Sun Mar 15 18:36:10 2015, MaxMem=   134217728 cpu:         0.1
 (Enter /opt/g09_D01_em64t/g09/l120.exe)
 SvSCFP did not find density file   528.
 ONIOM: saving gridpoint  3
 ONIOM: restoring gridpoint 17
 ONIOM: restoring gridpoint  2 on chk file.
 ONIOM: generating point  2 -- high level on model system.
 ChrgS2: IScale=     5     5     5     5     0     0 (distance 6..1 bonds)
 ChrgS2:  Scale=  1.00  1.00  1.00  1.00  0.00  0.00 (distance 6..1 bonds)

 --------------------------------------------------------------------------------
 #P Test IOp(2/15=1,5/32=2,5/38=1) B3LYP/6-31G(D,P)

 ch2nh2
 Point  2 -- high level on model system.

 0,1
  O-O_3--0.834000                                  -0.368705030000     -2.194244570000      0.000000000000
  H-H_-0.417000                                     0.591294970000     -2.194244570000      0.000000000000
  H-H_-0.417000                                    -0.689159620000     -1.289308740000      0.000000000000
  O-#6--0.834000                                   -2.347122270000      0.341726610000      0.000000000000
  H-#6-0.417000                                    -1.387122270000      0.341726610000      0.000000000000
  H-#6-0.417000                                    -2.667576860000      1.246662440000      0.000000000000

 1 2 1.000 3 1.000
 2 1 1.000
 3 1 1.000
 4 5 1.000 6 1.000
 5 4 1.000
 6 4 1.000
 
 --------------------------------------------------------------------------------

 Leave Link  120 at Sun Mar 15 18:36:10 2015, MaxMem=   134217728 cpu:         0.0
 (Enter /opt/g09_D01_em64t/g09/l301.exe)
 Standard basis: 6-31G(d,p) (6D, 7F)
                         Coordinates in L301:                         
 ---------------------------------------------------------------------
 Center     Atomic      Atomic             Coordinates (Angstroms)
 Number     Number       Type             X           Y           Z
 ---------------------------------------------------------------------
      1          8    10081003       -0.368705   -2.194245    0.000000
      2          1    10011000        0.591295   -2.194245    0.000000
      3          1    10011000       -0.689160   -1.289309    0.000000
      4          8           6       -2.347122    0.341727    0.000000
      5          1           6       -1.387122    0.341727    0.000000
      6          1           6       -2.667577    1.246662    0.000000
 ---------------------------------------------------------------------
 FixB: optimizing general contractions.
 Ernie: Thresh=  0.10000D-02 Tol=  0.10000D-05 Strict=F.
 IA=     1 ShT= 0 ShC= 0 NL=   1 NS=   0.
 IA=     1 L=0 SC=0 ISt=    0 NBk=    0 NP=    0 IndPr=    0.
 IA=     1 ShT= 1 ShC= 0 NL=   2 NS=   1.
 IA=     1 L=1 SC=0 ISt=    0 NBk=    0 NP=    0 IndPr=    0.
 IA=     1 ShT= 2 ShC= 2 NL=   1 NS=   1.
 IA=     1 L=2 SC=2 ISt=    0 NBk=    0 NP=    0 IndPr=    0.
 IA=     2 ShT= 0 ShC= 0 NL=   2 NS=   1.
 IA=     2 L=0 SC=0 ISt=    0 NBk=    0 NP=    0 IndPr=    0.
 IA=     2 ShT= 1 ShC= 1 NL=   1 NS=   1.
 IA=     2 L=1 SC=1 ISt=    0 NBk=    0 NP=    0 IndPr=    0.
 IA=     3 ShT= 0 ShC= 0 NL=   2 NS=   1.
 IA=     3 L=0 SC=0 ISt=    0 NBk=    0 NP=    0 IndPr=    0.
 IA=     3 ShT= 1 ShC= 1 NL=   1 NS=   1.
 IA=     3 L=1 SC=1 ISt=    0 NBk=    0 NP=    0 IndPr=    0.
 LdAtmC:  AtmChg=     8.000000     1.000000     1.000000    -0.834000     0.417000
 LdAtmC:  AtmChg=     0.417000
 AtZEff=     -5.6000000     -1.0000000     -1.0000000     -6.0000000     -1.0000000
 AtZEff=     -1.0000000
    25 basis functions,    42 primitive gaussians,    25 cartesian basis functions
     5 alpha electrons        5 beta electrons
       nuclear repulsion energy         8.8119525365 Hartrees.
 Nuclear repulsion from inactive atom pairs=       -0.3247219173 Hartrees.
 IS=     1 IAt=     1 ISR=     1 T=0 IP=      1 IndIP=      1 IndIPD=      0 C=  8.317237D-01  0.000000D+00                             NZ=T
 IS=     1 IAt=     1 ISR=     1 T=0 IP=      2 IndIP=      2 IndIPD=      1 C=  1.530816D+00  0.000000D+00                             NZ=T
 IS=     1 IAt=     1 ISR=     1 T=0 IP=      3 IndIP=      3 IndIPD=      2 C=  2.477149D+00  0.000000D+00                             NZ=T
 IS=     1 IAt=     1 ISR=     1 T=0 IP=      4 IndIP=      4 IndIPD=      3 C=  3.256281D+00  0.000000D+00                             NZ=T
 IS=     1 IAt=     1 ISR=     1 T=0 IP=      5 IndIP=      5 IndIPD=      4 C=  2.792893D+00  0.000000D+00                             NZ=T
 IS=     1 IAt=     1 ISR=     1 T=0 IP=      6 IndIP=      6 IndIPD=      5 C=  9.549377D-01  0.000000D+00                             NZ=T
 IS=     2 IAt=     1 ISR=     2 T=1 IP=      1 IndIP=      7 IndIPD=      0 C= -6.179340D-01  3.116944D+00                             NZ=T
 IS=     2 IAt=     1 ISR=     2 T=1 IP=      2 IndIP=      8 IndIPD=      1 C= -2.757209D-01  2.401438D+00                             NZ=T
 IS=     2 IAt=     1 ISR=     2 T=1 IP=      3 IndIP=      9 IndIPD=      2 C=  8.142076D-01  1.054360D+00                             NZ=T
 IS=     3 IAt=     1 ISR=     3 T=1 IP=      1 IndIP=     10 IndIPD=      0 C=  2.669562D-01  2.774320D-01                             NZ=T
 IS=     4 IAt=     1 ISR=     4 T=2 IP=      1 IndIP=     11 IndIPD=      1 C=  0.000000D+00  0.000000D+00  1.113825D+00  0.000000D+00 NZ=T
 IS=     5 IAt=     2 ISR=     1 T=0 IP=      1 IndIP=     12 IndIPD=      0 C=  2.149354D-01  0.000000D+00                             NZ=T
 IS=     5 IAt=     2 ISR=     1 T=0 IP=      2 IndIP=     13 IndIPD=      1 C=  3.645712D-01  0.000000D+00                             NZ=T
 IS=     5 IAt=     2 ISR=     1 T=0 IP=      3 IndIP=     14 IndIPD=      2 C=  4.150514D-01  0.000000D+00                             NZ=T
 IS=     6 IAt=     2 ISR=     2 T=0 IP=      1 IndIP=     15 IndIPD=      0 C=  1.813806D-01  0.000000D+00                             NZ=T
 IS=     7 IAt=     2 ISR=     3 T=1 IP=      1 IndIP=     16 IndIPD=      0 C=  0.000000D+00  1.605761D+00                             NZ=T
 IS=     8 IAt=     3 ISR=     1 T=0 IP=      1 IndIP=     17 IndIPD=      0 C=  2.149354D-01  0.000000D+00                             NZ=T
 IS=     8 IAt=     3 ISR=     1 T=0 IP=      2 IndIP=     18 IndIPD=      1 C=  3.645712D-01  0.000000D+00                             NZ=T
 IS=     8 IAt=     3 ISR=     1 T=0 IP=      3 IndIP=     19 IndIPD=      2 C=  4.150514D-01  0.000000D+00                             NZ=T
 IS=     9 IAt=     3 ISR=     2 T=0 IP=      1 IndIP=     20 IndIPD=      0 C=  1.813806D-01  0.000000D+00                             NZ=T
 IS=    10 IAt=     3 ISR=     3 T=1 IP=      1 IndIP=     21 IndIPD=      0 C=  0.000000D+00  1.605761D+00                             NZ=T
 IExCor=  402 DFT=T Ex+Corr=B3LYP ExCW=0 ScaHFX=  0.200000
 ScaDFX=  0.800000  0.720000  1.000000  0.810000 ScalE2=  1.000000  1.000000
 IRadAn=      0 IRanWt=     -1 IRanGd=            0 ICorTp=0 IEmpDi=  4
 NAtoms=    6 NActive=    3 NUniq=    3 SFac= 1.00D+00 NAtFMM=   60 NAOKFM=F Big=F
 Integral buffers will be    131072 words long.
 Raffenetti 2 integral format.
 Two-electron integral symmetry is turned off.
 Leave Link  301 at Sun Mar 15 18:36:10 2015, MaxMem=   134217728 cpu:         0.1
 (Enter /opt/g09_D01_em64t/g09/l302.exe)
 NPDir=0 NMtPBC=     1 NCelOv=     1 NCel=       1 NClECP=     1 NCelD=      1
         NCelK=      1 NCelE2=     1 NClLst=     1 CellRange=     0.0.
 One-electron integrals computed using PRISM.
 Entering OneElI...
 Calculate overlap and kinetic energy integrals
    NBasis =  25  MinDer = 0  MaxDer = 0
 Requested accuracy = 0.1000D-12
 PrsmSu:  NPrtUS=   2 ThrOK=T IAlg=1 NPAlg=2 LenDen=           0.
 Prism:   IPart=     0 DynPar=F LinDyn=F Incr=           1.
 PRISM was handed    67102070 working-precision words and    55 shell-pairs
 PRISM was handed    67102070 working-precision words and    55 shell-pairs
 IPart=  1 NShTot=          21 NBatch=          17 AvBLen=         1.2
 IPart=  0 NShTot=          34 NBatch=          28 AvBLen=         1.2
 PrSmSu:  NxtVal=              3.
 *** Overlap *** 
                1             2             3             4             5 
      1  0.100000D+01
      2  0.233690D+00  0.100000D+01
      3  0.000000D+00  0.000000D+00  0.100000D+01
      4  0.000000D+00  0.000000D+00  0.000000D+00  0.100000D+01
      5  0.000000D+00  0.000000D+00  0.000000D+00  0.000000D+00  0.100000D+01
      6  0.167280D+00  0.763641D+00  0.000000D+00  0.000000D+00  0.000000D+00
      7  0.000000D+00  0.000000D+00  0.501521D+00  0.000000D+00  0.000000D+00
      8  0.000000D+00  0.000000D+00  0.000000D+00  0.501521D+00  0.000000D+00
      9  0.000000D+00  0.000000D+00  0.000000D+00  0.000000D+00  0.501521D+00
     10  0.335315D-01  0.547066D+00  0.000000D+00  0.000000D+00  0.000000D+00
     11  0.335315D-01  0.547066D+00  0.000000D+00  0.000000D+00  0.000000D+00
     12  0.335315D-01  0.547066D+00  0.000000D+00  0.000000D+00  0.000000D+00
     13  0.000000D+00  0.000000D+00  0.000000D+00  0.000000D+00  0.000000D+00
     14  0.000000D+00  0.000000D+00  0.000000D+00  0.000000D+00  0.000000D+00
     15  0.000000D+00  0.000000D+00  0.000000D+00  0.000000D+00  0.000000D+00
     16  0.346526D-01  0.247247D+00  0.286266D+00  0.000000D+00  0.000000D+00
     17  0.688189D-01  0.379507D+00  0.147807D+00  0.000000D+00  0.000000D+00
     18 -0.570742D-01 -0.337432D+00 -0.382188D+00  0.000000D+00  0.000000D+00
     19  0.000000D+00  0.000000D+00  0.000000D+00  0.142271D+00  0.000000D+00
     20  0.000000D+00  0.000000D+00  0.000000D+00  0.000000D+00  0.142271D+00
     21  0.346526D-01  0.247247D+00 -0.955577D-01  0.269846D+00  0.000000D+00
     22  0.688189D-01  0.379507D+00 -0.493390D-01  0.139329D+00  0.000000D+00
     23  0.190518D-01  0.112637D+00  0.838321D-01  0.165026D+00  0.000000D+00
     24 -0.538005D-01 -0.318078D+00  0.165026D+00 -0.323749D+00  0.000000D+00
     25  0.000000D+00  0.000000D+00  0.000000D+00  0.000000D+00  0.142271D+00
                6             7             8             9            10 
      6  0.100000D+01
      7  0.000000D+00  0.100000D+01
      8  0.000000D+00  0.000000D+00  0.100000D+01
      9  0.000000D+00  0.000000D+00  0.000000D+00  0.100000D+01
     10  0.699015D+00  0.000000D+00  0.000000D+00  0.000000D+00  0.100000D+01
     11  0.699015D+00  0.000000D+00  0.000000D+00  0.000000D+00  0.333333D+00
     12  0.699015D+00  0.000000D+00  0.000000D+00  0.000000D+00  0.333333D+00
     13  0.000000D+00  0.000000D+00  0.000000D+00  0.000000D+00  0.000000D+00
     14  0.000000D+00  0.000000D+00  0.000000D+00  0.000000D+00  0.000000D+00
     15  0.000000D+00  0.000000D+00  0.000000D+00  0.000000D+00  0.000000D+00
     16  0.426176D+00  0.583430D+00  0.000000D+00  0.000000D+00  0.554681D+00
     17  0.682806D+00  0.481388D+00  0.000000D+00  0.000000D+00  0.470244D+00
     18 -0.260748D+00 -0.118102D+00  0.000000D+00  0.000000D+00 -0.406476D+00
     19  0.000000D+00  0.000000D+00  0.276608D+00  0.000000D+00  0.000000D+00
     20  0.000000D+00  0.000000D+00  0.000000D+00  0.276608D+00  0.000000D+00
     21  0.426176D+00 -0.194753D+00  0.549965D+00  0.000000D+00  0.209572D+00
     22  0.682806D+00 -0.160691D+00  0.453776D+00  0.000000D+00  0.407075D+00
     23  0.870395D-01  0.232626D+00  0.124200D+00  0.000000D+00 -0.712880D-01
     24 -0.245792D+00  0.124200D+00 -0.741208D-01  0.000000D+00 -0.230209D+00
     25  0.000000D+00  0.000000D+00  0.000000D+00  0.276608D+00  0.000000D+00
               11            12            13            14            15 
     11  0.100000D+01
     12  0.333333D+00  0.100000D+01
     13  0.000000D+00  0.000000D+00  0.100000D+01
     14  0.000000D+00  0.000000D+00  0.000000D+00  0.100000D+01
     15  0.000000D+00  0.000000D+00  0.000000D+00  0.000000D+00  0.100000D+01
     16  0.166296D+00  0.166296D+00  0.000000D+00  0.000000D+00  0.000000D+00
     17  0.399154D+00  0.399154D+00  0.000000D+00  0.000000D+00  0.000000D+00
     18 -0.166465D+00 -0.166465D+00  0.000000D+00  0.000000D+00  0.000000D+00
     19  0.000000D+00  0.000000D+00  0.396447D+00  0.000000D+00  0.000000D+00
     20  0.000000D+00  0.000000D+00  0.000000D+00  0.396447D+00  0.000000D+00
     21  0.511404D+00  0.166296D+00 -0.211673D+00  0.000000D+00  0.000000D+00
     22  0.462323D+00  0.399154D+00 -0.387447D-01  0.000000D+00  0.000000D+00
     23  0.262539D+00  0.555670D-01  0.246761D+00  0.000000D+00  0.000000D+00
     24 -0.309868D+00 -0.156916D+00  0.226150D+00  0.000000D+00  0.000000D+00
     25  0.000000D+00  0.000000D+00  0.000000D+00 -0.132337D+00  0.373707D+00
               16            17            18            19            20 
     16  0.100000D+01
     17  0.658292D+00  0.100000D+01
     18  0.000000D+00  0.000000D+00  0.100000D+01
     19  0.000000D+00  0.000000D+00  0.000000D+00  0.100000D+01
     20  0.000000D+00  0.000000D+00  0.000000D+00  0.000000D+00  0.100000D+01
     21  0.425955D-01  0.207908D+00 -0.419367D-01  0.296379D-01  0.000000D+00
     22  0.207908D+00  0.492649D+00 -0.103042D+00  0.728225D-01  0.000000D+00
     23  0.419367D-01  0.103042D+00 -0.435092D-01  0.364012D-01  0.000000D+00
     24 -0.296379D-01 -0.728225D-01  0.364012D-01 -0.177285D-01  0.000000D+00
     25  0.000000D+00  0.000000D+00  0.000000D+00  0.000000D+00  0.799730D-02
               21            22            23            24            25 
     21  0.100000D+01
     22  0.658292D+00  0.100000D+01
     23  0.000000D+00  0.000000D+00  0.100000D+01
     24  0.000000D+00  0.000000D+00  0.000000D+00  0.100000D+01
     25  0.000000D+00  0.000000D+00  0.000000D+00  0.000000D+00  0.100000D+01
 *** Kinetic Energy *** 
                1             2             3             4             5 
      1  0.295401D+02
      2 -0.218540D+01  0.171121D+01
      3  0.000000D+00  0.000000D+00  0.425188D+01
      4  0.000000D+00  0.000000D+00  0.000000D+00  0.425188D+01
      5  0.000000D+00  0.000000D+00  0.000000D+00  0.000000D+00  0.425188D+01
      6  0.131283D+00  0.480048D+00  0.000000D+00  0.000000D+00  0.000000D+00
      7  0.000000D+00  0.000000D+00  0.547243D+00  0.000000D+00  0.000000D+00
      8  0.000000D+00  0.000000D+00  0.000000D+00  0.547243D+00  0.000000D+00
      9  0.000000D+00  0.000000D+00  0.000000D+00  0.000000D+00  0.547243D+00
     10 -0.465828D+00  0.249764D+00  0.000000D+00  0.000000D+00  0.000000D+00
     11 -0.465828D+00  0.249764D+00  0.000000D+00  0.000000D+00  0.000000D+00
     12 -0.465828D+00  0.249764D+00  0.000000D+00  0.000000D+00  0.000000D+00
     13  0.000000D+00  0.000000D+00  0.000000D+00  0.000000D+00  0.000000D+00
     14  0.000000D+00  0.000000D+00  0.000000D+00  0.000000D+00  0.000000D+00
     15  0.000000D+00  0.000000D+00  0.000000D+00  0.000000D+00  0.000000D+00
     16 -0.222688D-01  0.195359D-01  0.222208D+00  0.000000D+00  0.000000D+00
     17  0.213242D-01  0.109555D+00  0.847564D-01  0.000000D+00  0.000000D+00
     18  0.785073D-01 -0.310778D+00 -0.826207D+00  0.000000D+00  0.000000D+00
     19  0.000000D+00  0.000000D+00  0.000000D+00  0.958213D-01  0.000000D+00
     20  0.000000D+00  0.000000D+00  0.000000D+00  0.000000D+00  0.958213D-01
     21 -0.222688D-01  0.195359D-01 -0.741744D-01  0.209462D+00  0.000000D+00
     22  0.213242D-01  0.109555D+00 -0.282923D-01  0.798949D-01  0.000000D+00
     23 -0.262063D-01  0.103740D+00 -0.691758D-02  0.290126D+00  0.000000D+00
     24  0.740042D-01 -0.292953D+00  0.290126D+00 -0.723468D+00  0.000000D+00
     25  0.000000D+00  0.000000D+00  0.000000D+00  0.000000D+00  0.958213D-01
                6             7             8             9            10 
      6  0.405009D+00
      7  0.000000D+00  0.675015D+00
      8  0.000000D+00  0.000000D+00  0.675015D+00
      9  0.000000D+00  0.000000D+00  0.000000D+00  0.675015D+00
     10  0.328083D+00  0.000000D+00  0.000000D+00  0.000000D+00  0.173333D+01
     11  0.328083D+00  0.000000D+00  0.000000D+00  0.000000D+00 -0.133333D+00
     12  0.328083D+00  0.000000D+00  0.000000D+00  0.000000D+00 -0.133333D+00
     13  0.000000D+00  0.000000D+00  0.000000D+00  0.000000D+00  0.000000D+00
     14  0.000000D+00  0.000000D+00  0.000000D+00  0.000000D+00  0.000000D+00
     15  0.000000D+00  0.000000D+00  0.000000D+00  0.000000D+00  0.000000D+00
     16  0.141953D+00  0.425097D+00  0.000000D+00  0.000000D+00  0.570989D+00
     17  0.161007D+00  0.210722D+00  0.000000D+00  0.000000D+00  0.150153D+00
     18 -0.201977D+00 -0.262623D+00  0.000000D+00  0.000000D+00 -0.102405D+01
     19  0.000000D+00  0.000000D+00  0.214262D+00  0.000000D+00  0.000000D+00
     20  0.000000D+00  0.000000D+00  0.000000D+00  0.214262D+00  0.000000D+00
     21  0.141953D+00 -0.141900D+00  0.400714D+00  0.000000D+00 -0.113986D-01
     22  0.161007D+00 -0.703405D-01  0.198635D+00  0.000000D+00  0.982944D-01
     23  0.674213D-01  0.161124D+00  0.150057D+00  0.000000D+00 -0.228672D+00
     24 -0.190392D+00  0.150057D+00 -0.209485D+00  0.000000D+00 -0.143988D+00
     25  0.000000D+00  0.000000D+00  0.000000D+00  0.214262D+00  0.000000D+00
               11            12            13            14            15 
     11  0.173333D+01
     12 -0.133333D+00  0.173333D+01
     13  0.000000D+00  0.000000D+00  0.280000D+01
     14  0.000000D+00  0.000000D+00  0.000000D+00  0.280000D+01
     15  0.000000D+00  0.000000D+00  0.000000D+00  0.000000D+00  0.280000D+01
     16 -0.844300D-01 -0.844300D-01  0.000000D+00  0.000000D+00  0.000000D+00
     17  0.917912D-01  0.917912D-01  0.000000D+00  0.000000D+00  0.000000D+00
     18  0.615709D-01  0.615709D-01  0.000000D+00  0.000000D+00  0.000000D+00
     19  0.000000D+00  0.000000D+00  0.725548D+00  0.000000D+00  0.000000D+00
     20  0.000000D+00  0.000000D+00  0.000000D+00  0.725548D+00  0.000000D+00
     21  0.497957D+00 -0.844300D-01 -0.357208D+00  0.000000D+00  0.000000D+00
     22  0.143650D+00  0.917912D-01 -0.318079D-01  0.000000D+00  0.000000D+00
     23  0.549954D+00 -0.205528D-01  0.334010D+00  0.000000D+00  0.000000D+00
     24 -0.763287D+00  0.580393D-01  0.745954D+00  0.000000D+00  0.000000D+00
     25  0.000000D+00  0.000000D+00  0.000000D+00 -0.242193D+00  0.683932D+00
               16            17            18            19            20 
     16  0.139568D+01
     17  0.259735D+00  0.241917D+00
     18  0.000000D+00  0.000000D+00  0.275000D+01
     19  0.000000D+00  0.000000D+00  0.000000D+00  0.275000D+01
     20  0.000000D+00  0.000000D+00  0.000000D+00  0.000000D+00  0.275000D+01
     21 -0.422876D-01  0.188643D-01  0.401240D-01 -0.283568D-01  0.000000D+00
     22  0.188643D-01  0.629304D-01 -0.366721D-01  0.259173D-01  0.000000D+00
     23 -0.401240D-01  0.366721D-01  0.547924D-01 -0.532010D-01  0.000000D+00
     24  0.283568D-01 -0.259173D-01 -0.532010D-01  0.171135D-01  0.000000D+00
     25  0.000000D+00  0.000000D+00  0.000000D+00  0.000000D+00 -0.204852D-01
               21            22            23            24            25 
     21  0.139568D+01
     22  0.259735D+00  0.241917D+00
     23  0.000000D+00  0.000000D+00  0.275000D+01
     24  0.000000D+00  0.000000D+00  0.000000D+00  0.275000D+01
     25  0.000000D+00  0.000000D+00  0.000000D+00  0.000000D+00  0.275000D+01
 Entering OneElI...
 Calculate potential energy integrals
    NBasis =  25  MinDer = 0  MaxDer = 0
 Requested accuracy = 0.1000D-12
 PrsmSu:  NPrtUS=   2 ThrOK=T IAlg=1 NPAlg=2 LenDen=           0.
 Prism:   IPart=     0 DynPar=F LinDyn=F Incr=           1.
 PRISM was handed    67102115 working-precision words and    55 shell-pairs
 PRISM was handed    67102115 working-precision words and    55 shell-pairs
 IPart=  1 NShTot=         126 NBatch=          21 AvBLen=         6.0
 IPart=  0 NShTot=         204 NBatch=          34 AvBLen=         6.0
 PrSmSu:  NxtVal=              3.
 ***** Potential Energy ***** 
                1             2             3             4             5 
      1  0.625805D+02
      2  0.518074D+01  0.116301D+02
      3  0.150283D-01  0.102210D+00  0.127723D+02
      4  0.209982D-01  0.142806D+00 -0.267642D-01  0.127541D+02
      5  0.000000D+00  0.000000D+00  0.000000D+00  0.000000D+00  0.126775D+02
      6  0.550229D+01  0.786618D+01  0.965552D-01  0.134855D+00  0.000000D+00
      7  0.207087D-02  0.654594D-01  0.435566D+01 -0.243924D-01  0.000000D+00
      8  0.289351D-02  0.914174D-01 -0.243924D-01  0.433912D+01  0.000000D+00
      9  0.000000D+00  0.000000D+00  0.000000D+00  0.000000D+00  0.426922D+01
     10  0.635291D+00  0.494246D+01  0.177356D+00  0.572391D-01  0.000000D+00
     11  0.635056D+00  0.492651D+01  0.140193D-01  0.210264D+00  0.000000D+00
     12  0.634070D+00  0.485954D+01  0.356666D-01  0.496411D-01  0.000000D+00
     13 -0.597171D-03 -0.405370D-01  0.991410D-01  0.242822D-01  0.000000D+00
     14  0.000000D+00  0.000000D+00  0.000000D+00  0.000000D+00  0.617764D-01
     15  0.000000D+00  0.000000D+00  0.000000D+00  0.000000D+00  0.859808D-01
     16  0.109625D+01  0.236434D+01  0.249421D+01  0.200758D-01  0.000000D+00
     17  0.223469D+01  0.372702D+01  0.127091D+01  0.613424D-01  0.000000D+00
     18 -0.176322D+01 -0.348164D+01 -0.379231D+01 -0.241354D-01  0.000000D+00
     19  0.479458D-03  0.136384D-01  0.145139D-01  0.116946D+01  0.000000D+00
     20  0.000000D+00  0.000000D+00  0.000000D+00  0.000000D+00  0.116492D+01
     21  0.109623D+01  0.236398D+01 -0.813084D+00  0.235758D+01  0.000000D+00
     22  0.223469D+01  0.372672D+01 -0.365489D+00  0.121801D+01  0.000000D+00
     23  0.589021D+00  0.117533D+01  0.619293D+00  0.157725D+01  0.000000D+00
     24 -0.166189D+01 -0.327668D+01  0.153734D+01 -0.324176D+01  0.000000D+00
     25  0.000000D+00  0.000000D+00  0.000000D+00  0.000000D+00  0.116470D+01
                6             7             8             9            10 
      6  0.766740D+01
      7  0.137774D+00  0.544020D+01
      8  0.191421D+00 -0.553609D-01  0.540479D+01
      9  0.000000D+00  0.000000D+00  0.000000D+00  0.524320D+01
     10  0.515403D+01  0.249060D+00  0.717903D-01  0.000000D+00  0.731816D+01
     11  0.512699D+01  0.486975D-02  0.282548D+00  0.000000D+00  0.240490D+01
     12  0.501198D+01  0.423672D-01  0.586953D-01  0.000000D+00  0.236765D+01
     13 -0.694019D-01  0.124344D+00  0.843465D-02  0.000000D+00 -0.528715D-01
     14  0.000000D+00  0.000000D+00  0.000000D+00  0.733822D-01  0.000000D+00
     15  0.000000D+00  0.000000D+00  0.000000D+00  0.101663D+00  0.000000D+00
     16  0.303798D+01  0.354116D+01  0.235815D-01  0.000000D+00  0.397636D+01
     17  0.452497D+01  0.241190D+01  0.107655D+00  0.000000D+00  0.327313D+01
     18 -0.263895D+01 -0.153490D+01 -0.168217D-01  0.000000D+00 -0.350127D+01
     19  0.243830D-01  0.291482D-01  0.160551D+01  0.000000D+00  0.266001D-01
     20  0.000000D+00  0.000000D+00  0.000000D+00  0.159891D+01  0.000000D+00
     21  0.303767D+01 -0.115847D+01  0.334664D+01  0.000000D+00  0.150707D+01
     22  0.452398D+01 -0.700075D+00  0.230940D+01  0.000000D+00  0.280968D+01
     23  0.905452D+00  0.125010D+01  0.101841D+01  0.000000D+00 -0.332162D+00
     24 -0.247765D+01  0.968523D+00 -0.117814D+01  0.000000D+00 -0.180232D+01
     25  0.000000D+00  0.000000D+00  0.000000D+00  0.159867D+01  0.000000D+00
               11            12            13            14            15 
     11  0.725666D+01
     12  0.236183D+01  0.700939D+01
     13 -0.103880D+00 -0.152130D-01  0.721469D+01
     14  0.000000D+00  0.000000D+00  0.000000D+00  0.710296D+01
     15  0.000000D+00  0.000000D+00  0.000000D+00 -0.263497D-01  0.708549D+01
     16  0.120843D+01  0.119927D+01  0.240807D-01  0.000000D+00  0.000000D+00
     17  0.275257D+01  0.269894D+01 -0.187822D-02  0.000000D+00  0.000000D+00
     18 -0.136021D+01 -0.135255D+01 -0.270657D-01  0.000000D+00  0.000000D+00
     19  0.218748D-01  0.641151D-02  0.258320D+01  0.000000D+00  0.000000D+00
     20  0.000000D+00  0.000000D+00  0.000000D+00  0.257538D+01  0.111051D-01
     21  0.367683D+01  0.119900D+01 -0.148872D+01  0.000000D+00  0.000000D+00
     22  0.321470D+01  0.269857D+01 -0.284616D+00  0.000000D+00  0.000000D+00
     23  0.200311D+01  0.457724D+00  0.150634D+01  0.000000D+00  0.000000D+00
     24 -0.276153D+01 -0.127244D+01  0.174789D+01  0.000000D+00  0.000000D+00
     25  0.000000D+00  0.000000D+00  0.000000D+00 -0.848535D+00  0.243106D+01
               16            17            18            19            20 
     16  0.639120D+01
     17  0.381261D+01  0.474395D+01
     18 -0.129719D+01 -0.110064D+01  0.647047D+01
     19  0.354045D-01  0.309912D-01 -0.124524D-01  0.556040D+01
     20  0.000000D+00  0.000000D+00  0.000000D+00  0.000000D+00  0.555128D+01
     21  0.350012D+00  0.140049D+01 -0.398954D+00  0.206122D+00  0.000000D+00
     22  0.140022D+01  0.276767D+01 -0.107139D+01  0.418786D+00  0.000000D+00
     23  0.327501D+00  0.753109D+00 -0.384097D+00  0.257702D+00  0.000000D+00
     24 -0.307241D+00 -0.869245D+00  0.398462D+00 -0.151724D+00  0.000000D+00
     25  0.000000D+00  0.000000D+00  0.000000D+00  0.000000D+00  0.587671D-01
               21            22            23            24            25 
     21  0.639297D+01
     22  0.381377D+01  0.474492D+01
     23  0.470142D+00  0.399903D+00  0.566863D+01
     24 -0.120540D+01 -0.102229D+01 -0.296129D+00  0.636639D+01
     25  0.000000D+00  0.000000D+00  0.000000D+00  0.000000D+00  0.555242D+01
 ****** Core Hamiltonian ****** 
                1             2             3             4             5 
      1 -0.330404D+02
      2 -0.736614D+01 -0.991892D+01
      3 -0.150283D-01 -0.102210D+00 -0.852043D+01
      4 -0.209982D-01 -0.142806D+00  0.267642D-01 -0.850219D+01
      5  0.000000D+00  0.000000D+00  0.000000D+00  0.000000D+00 -0.842563D+01
      6 -0.537101D+01 -0.738613D+01 -0.965552D-01 -0.134855D+00  0.000000D+00
      7 -0.207087D-02 -0.654594D-01 -0.380842D+01  0.243924D-01  0.000000D+00
      8 -0.289351D-02 -0.914174D-01  0.243924D-01 -0.379187D+01  0.000000D+00
      9  0.000000D+00  0.000000D+00  0.000000D+00  0.000000D+00 -0.372198D+01
     10 -0.110112D+01 -0.469269D+01 -0.177356D+00 -0.572391D-01  0.000000D+00
     11 -0.110088D+01 -0.467675D+01 -0.140193D-01 -0.210264D+00  0.000000D+00
     12 -0.109990D+01 -0.460978D+01 -0.356666D-01 -0.496411D-01  0.000000D+00
     13  0.597171D-03  0.405370D-01 -0.991410D-01 -0.242822D-01  0.000000D+00
     14  0.000000D+00  0.000000D+00  0.000000D+00  0.000000D+00 -0.617764D-01
     15  0.000000D+00  0.000000D+00  0.000000D+00  0.000000D+00 -0.859808D-01
     16 -0.111852D+01 -0.234480D+01 -0.227200D+01 -0.200758D-01  0.000000D+00
     17 -0.221337D+01 -0.361746D+01 -0.118615D+01 -0.613424D-01  0.000000D+00
     18  0.184173D+01  0.317086D+01  0.296610D+01  0.241354D-01  0.000000D+00
     19 -0.479458D-03 -0.136384D-01 -0.145139D-01 -0.107364D+01  0.000000D+00
     20  0.000000D+00  0.000000D+00  0.000000D+00  0.000000D+00 -0.106910D+01
     21 -0.111850D+01 -0.234444D+01  0.738909D+00 -0.214811D+01  0.000000D+00
     22 -0.221336D+01 -0.361717D+01  0.337197D+00 -0.113812D+01  0.000000D+00
     23 -0.615228D+00 -0.107159D+01 -0.626210D+00 -0.128712D+01  0.000000D+00
     24  0.173590D+01  0.298373D+01 -0.124721D+01  0.251829D+01  0.000000D+00
     25  0.000000D+00  0.000000D+00  0.000000D+00  0.000000D+00 -0.106888D+01
                6             7             8             9            10 
      6 -0.726239D+01
      7 -0.137774D+00 -0.476519D+01
      8 -0.191421D+00  0.553609D-01 -0.472978D+01
      9  0.000000D+00  0.000000D+00  0.000000D+00 -0.456818D+01
     10 -0.482595D+01 -0.249060D+00 -0.717903D-01  0.000000D+00 -0.558482D+01
     11 -0.479891D+01 -0.486975D-02 -0.282548D+00  0.000000D+00 -0.253823D+01
     12 -0.468390D+01 -0.423672D-01 -0.586953D-01  0.000000D+00 -0.250099D+01
     13  0.694019D-01 -0.124344D+00 -0.843465D-02  0.000000D+00  0.528715D-01
     14  0.000000D+00  0.000000D+00  0.000000D+00 -0.733822D-01  0.000000D+00
     15  0.000000D+00  0.000000D+00  0.000000D+00 -0.101663D+00  0.000000D+00
     16 -0.289603D+01 -0.311606D+01 -0.235815D-01  0.000000D+00 -0.340537D+01
     17 -0.436396D+01 -0.220117D+01 -0.107655D+00  0.000000D+00 -0.312297D+01
     18  0.243697D+01  0.127227D+01  0.168217D-01  0.000000D+00  0.247722D+01
     19 -0.243830D-01 -0.291482D-01 -0.139125D+01  0.000000D+00 -0.266001D-01
     20  0.000000D+00  0.000000D+00  0.000000D+00 -0.138464D+01  0.000000D+00
     21 -0.289572D+01  0.101657D+01 -0.294593D+01  0.000000D+00 -0.151847D+01
     22 -0.436297D+01  0.629735D+00 -0.211076D+01  0.000000D+00 -0.271139D+01
     23 -0.838030D+00 -0.108897D+01 -0.868351D+00  0.000000D+00  0.103491D+00
     24  0.228726D+01 -0.818466D+00  0.968655D+00  0.000000D+00  0.165833D+01
     25  0.000000D+00  0.000000D+00  0.000000D+00 -0.138441D+01  0.000000D+00
               11            12            13            14            15 
     11 -0.552332D+01
     12 -0.249516D+01 -0.527605D+01
     13  0.103880D+00  0.152130D-01 -0.441469D+01
     14  0.000000D+00  0.000000D+00  0.000000D+00 -0.430296D+01
     15  0.000000D+00  0.000000D+00  0.000000D+00  0.263497D-01 -0.428549D+01
     16 -0.129286D+01 -0.128370D+01 -0.240807D-01  0.000000D+00  0.000000D+00
     17 -0.266077D+01 -0.260714D+01  0.187822D-02  0.000000D+00  0.000000D+00
     18  0.142178D+01  0.141412D+01  0.270657D-01  0.000000D+00  0.000000D+00
     19 -0.218748D-01 -0.641151D-02 -0.185765D+01  0.000000D+00  0.000000D+00
     20  0.000000D+00  0.000000D+00  0.000000D+00 -0.184984D+01 -0.111051D-01
     21 -0.317887D+01 -0.128343D+01  0.113152D+01  0.000000D+00  0.000000D+00
     22 -0.307105D+01 -0.260678D+01  0.252808D+00  0.000000D+00  0.000000D+00
     23 -0.145316D+01 -0.478277D+00 -0.117233D+01  0.000000D+00  0.000000D+00
     24  0.199825D+01  0.133048D+01 -0.100193D+01  0.000000D+00  0.000000D+00
     25  0.000000D+00  0.000000D+00  0.000000D+00  0.606342D+00 -0.174713D+01
               16            17            18            19            20 
     16 -0.499552D+01
     17 -0.355287D+01 -0.450204D+01
     18  0.129719D+01  0.110064D+01 -0.372047D+01
     19 -0.354045D-01 -0.309912D-01  0.124524D-01 -0.281040D+01
     20  0.000000D+00  0.000000D+00  0.000000D+00  0.000000D+00 -0.280128D+01
     21 -0.392299D+00 -0.138162D+01  0.439078D+00 -0.234479D+00  0.000000D+00
     22 -0.138135D+01 -0.270474D+01  0.103472D+01 -0.392869D+00  0.000000D+00
     23 -0.367625D+00 -0.716437D+00  0.438890D+00 -0.310903D+00  0.000000D+00
     24  0.335598D+00  0.843328D+00 -0.451663D+00  0.168838D+00  0.000000D+00
     25  0.000000D+00  0.000000D+00  0.000000D+00  0.000000D+00 -0.792523D-01
               21            22            23            24            25 
     21 -0.499729D+01
     22 -0.355403D+01 -0.450300D+01
     23 -0.470142D+00 -0.399903D+00 -0.291863D+01
     24  0.120540D+01  0.102229D+01  0.296129D+00 -0.361639D+01
     25  0.000000D+00  0.000000D+00  0.000000D+00  0.000000D+00 -0.280242D+01
 SVDSVc IOpt=  1 IR=1
 SVDSVc V= 4.81D+00 2.39D+00 1.92D+00 1.78D+00 1.48D+00 1.45D+00 1.35D+00 1.26D+00 1.16D+00 1.13D+00
 SVDSVc V= 1.01D+00 7.51D-01 7.06D-01 6.40D-01 5.38D-01 5.02D-01 4.23D-01 3.75D-01 3.70D-01 3.49D-01
 SVDSVc V= 2.65D-01 1.57D-01 1.01D-01 6.30D-02 2.21D-02
 TstOVc:  Largest diagonal error= 3.77D-15 IB=1 I=   25.
 TstOVc:  Largest same sym error= 2.53D-15 IB=1 I=    5 J=    3.
 Orthogonalized basis functions: 
                 1             2             3             4             5 
      1   0.315781D-01 -0.184665D-04 -0.452027D-01  0.000000D+00  0.811524D-01
      2   0.158848D+00 -0.960258D-04 -0.137558D+00  0.000000D+00  0.158116D+00
      3   0.175501D-01  0.235733D+00  0.188893D+00  0.000000D+00 -0.722404D-01
      4   0.248783D-01 -0.164143D+00  0.281878D+00  0.000000D+00 -0.610118D-01
      5   0.000000D+00  0.000000D+00  0.000000D+00  0.398314D+00  0.000000D+00
      6   0.198828D+00  0.412796D-04 -0.102137D+00  0.000000D+00  0.636594D-01
      7   0.278044D-01  0.311494D+00  0.238952D+00  0.000000D+00 -0.127533D+00
      8   0.394010D-01 -0.216542D+00  0.358341D+00  0.000000D+00 -0.103870D+00
      9   0.000000D+00  0.000000D+00  0.000000D+00  0.458325D+00  0.000000D+00
     10   0.150178D+00  0.569254D-01 -0.944511D-01  0.000000D+00  0.328693D-02
     11   0.147024D+00 -0.570828D-01 -0.518924D-01  0.000000D+00  0.848817D-01
     12   0.132085D+00  0.661854D-04 -0.111085D+00  0.000000D+00  0.112552D+00
     13  -0.846668D-02  0.473468D-01  0.144530D+00  0.000000D+00  0.532504D+00
     14   0.000000D+00  0.000000D+00  0.000000D+00  0.968323D-01  0.000000D+00
     15   0.000000D+00  0.000000D+00  0.000000D+00  0.137015D+00  0.000000D+00
     16   0.108474D+00  0.236860D+00  0.121792D+00  0.000000D+00 -0.172105D+00
     17   0.149885D+00  0.155227D+00  0.744325D-01  0.000000D+00 -0.113806D+00
     18  -0.650980D-01 -0.809299D-01  0.240473D-01  0.000000D+00 -0.124426D+00
     19   0.716419D-02 -0.595769D-01  0.230859D+00  0.000000D+00  0.356426D+00
     20   0.000000D+00  0.000000D+00  0.000000D+00  0.286658D+00  0.000000D+00
     21   0.108672D+00 -0.237692D+00  0.125140D+00  0.000000D+00 -0.199079D+00
     22   0.149939D+00 -0.153996D+00  0.822876D-01  0.000000D+00 -0.872168D-01
     23   0.285867D-01  0.417322D-01  0.196288D+00  0.000000D+00  0.261753D+00
     24  -0.590574D-01  0.101803D+00  0.981947D-01  0.000000D+00  0.159330D-01
     25   0.000000D+00  0.000000D+00  0.000000D+00  0.286658D+00  0.000000D+00
                 6             7             8             9            10 
      1   0.000000D+00 -0.104387D+00  0.812736D-03  0.000000D+00  0.221122D-01
      2   0.000000D+00 -0.154129D+00  0.121075D-02  0.000000D+00  0.157695D-01
      3   0.000000D+00 -0.228078D+00 -0.335037D+00  0.000000D+00  0.608901D-01
      4   0.000000D+00 -0.313986D+00  0.214092D+00  0.000000D+00 -0.116460D+00
      5   0.000000D+00  0.000000D+00  0.000000D+00 -0.368795D+00  0.000000D+00
      6   0.000000D+00  0.653243D-01  0.498388D-02  0.000000D+00  0.171283D-01
      7   0.000000D+00 -0.607276D-01  0.105432D+00  0.000000D+00  0.903452D-01
      8   0.000000D+00 -0.454468D-01 -0.832848D-01  0.000000D+00 -0.884520D-01
      9   0.000000D+00  0.000000D+00  0.000000D+00 -0.264983D+00  0.000000D+00
     10   0.000000D+00 -0.325364D-01 -0.517321D-01  0.000000D+00 -0.364249D+00
     11   0.000000D+00 -0.283737D-01  0.511880D-01  0.000000D+00  0.355177D+00
     12   0.000000D+00  0.312386D-01  0.707890D-02  0.000000D+00  0.328020D-01
     13   0.000000D+00  0.206521D+00  0.407778D-02  0.000000D+00 -0.819717D-01
     14   0.480995D+00  0.000000D+00  0.000000D+00  0.417156D+00  0.000000D+00
     15  -0.339934D+00  0.000000D+00  0.000000D+00  0.590261D+00  0.000000D+00
     16   0.000000D+00  0.123180D+00  0.186293D+00  0.000000D+00 -0.216808D+00
     17   0.000000D+00  0.213634D+00  0.188128D+00  0.000000D+00 -0.179653D-02
     18   0.000000D+00  0.405229D+00  0.498404D+00  0.000000D+00  0.904811D-01
     19   0.000000D+00  0.929742D-01  0.177681D-01  0.000000D+00 -0.388646D+00
     20   0.412859D+00  0.000000D+00  0.000000D+00  0.256536D+00  0.000000D+00
     21   0.000000D+00  0.107342D+00 -0.194919D+00  0.000000D+00  0.163926D+00
     22   0.000000D+00  0.230532D+00 -0.179683D+00  0.000000D+00  0.143041D-01
     23   0.000000D+00 -0.126096D+00  0.181832D+00  0.000000D+00  0.568022D+00
     24   0.000000D+00  0.432292D+00 -0.438146D+00  0.000000D+00  0.170783D+00
     25  -0.412859D+00  0.000000D+00  0.000000D+00  0.256536D+00  0.000000D+00
                11            12            13            14            15 
      1   0.953478D+00 -0.578012D-01 -0.322413D-02  0.000000D+00  0.000000D+00
      2   0.957569D-01  0.697920D-01  0.765548D-02  0.000000D+00  0.000000D+00
      3  -0.142559D-01  0.168456D+00  0.326282D+00  0.000000D+00  0.000000D+00
      4  -0.210545D-01  0.163342D+00 -0.345728D+00  0.000000D+00  0.000000D+00
      5   0.000000D+00  0.000000D+00  0.000000D+00  0.738341D+00  0.000000D+00
      6   0.359256D-02  0.744275D-01 -0.545762D-02  0.000000D+00  0.000000D+00
      7   0.412606D-01  0.876268D-01  0.155674D+00  0.000000D+00  0.000000D+00
      8   0.611488D-01  0.928913D-01 -0.116838D+00  0.000000D+00  0.000000D+00
      9   0.000000D+00  0.000000D+00  0.000000D+00 -0.237239D+00  0.000000D+00
     10  -0.116312D+00 -0.398173D+00 -0.409644D+00  0.000000D+00  0.000000D+00
     11  -0.143354D+00 -0.363934D+00  0.490008D+00  0.000000D+00  0.000000D+00
     12  -0.878243D-01  0.894912D+00 -0.777944D-01  0.000000D+00  0.000000D+00
     13  -0.326245D-01 -0.113937D+00 -0.248378D+00  0.000000D+00  0.000000D+00
     14   0.000000D+00  0.000000D+00  0.000000D+00  0.378265D+00  0.783737D+00
     15   0.000000D+00  0.000000D+00  0.000000D+00  0.535232D+00 -0.553890D+00
     16   0.272003D-01 -0.228834D+00 -0.137257D+00  0.000000D+00  0.000000D+00
     17   0.342425D-01  0.716480D-01  0.441945D-01  0.000000D+00  0.000000D+00
     18   0.104737D+00  0.121469D+00  0.139751D+00  0.000000D+00  0.000000D+00
     19   0.283624D-03  0.162864D-01  0.638063D+00  0.000000D+00  0.000000D+00
     20   0.000000D+00  0.000000D+00  0.000000D+00 -0.515112D+00 -0.684568D+00
     21   0.190701D-01 -0.210398D+00  0.152298D+00  0.000000D+00  0.000000D+00
     22   0.335399D-01  0.601099D-01 -0.698872D-01  0.000000D+00  0.000000D+00
     23  -0.645068D-01 -0.135500D+00 -0.341479D+00  0.000000D+00  0.000000D+00
     24   0.926668D-01  0.582734D-01 -0.292109D+00  0.000000D+00  0.000000D+00
     25   0.000000D+00  0.000000D+00  0.000000D+00 -0.515112D+00  0.684568D+00
                16            17            18            19            20 
      1   0.650247D-01  0.000000D+00 -0.690031D-01 -0.146472D+00 -0.586742D-01
      2  -0.225323D+00  0.000000D+00  0.372278D+00  0.865439D+00  0.583264D-01
      3   0.558827D+00  0.000000D+00  0.699036D+00 -0.278591D+00 -0.397472D+00
      4   0.619365D+00  0.000000D+00 -0.605394D+00  0.248325D+00 -0.417372D+00
      5   0.000000D+00 -0.704482D+00  0.000000D+00  0.000000D+00  0.000000D+00
      6   0.126408D+00  0.000000D+00 -0.762694D-01 -0.119796D+00 -0.144237D+00
      7  -0.288723D+00  0.000000D+00 -0.393099D+00  0.429385D+00  0.554993D+00
      8  -0.436582D+00  0.000000D+00  0.598768D+00  0.864989D-01  0.585716D+00
      9   0.000000D+00  0.109543D+01  0.000000D+00  0.000000D+00  0.000000D+00
     10  -0.154285D+00  0.000000D+00  0.105154D+00 -0.132578D+00 -0.341718D+00
     11   0.300250D+00  0.000000D+00 -0.120891D+00  0.190269D+00  0.845196D-01
     12  -0.110662D+00  0.000000D+00  0.260424D-01  0.844449D-01 -0.189869D+00
     13   0.604958D+00  0.000000D+00  0.243075D+00  0.250150D+00  0.603085D+00
     14   0.000000D+00  0.230446D+00  0.000000D+00  0.000000D+00  0.000000D+00
     15   0.000000D+00  0.326074D+00  0.000000D+00  0.000000D+00  0.000000D+00
     16  -0.455517D-01  0.000000D+00  0.386475D+00  0.231610D+00 -0.402961D+00
     17   0.118263D+00  0.000000D+00 -0.522186D+00 -0.435486D+00  0.401558D+00
     18   0.208422D+00  0.000000D+00  0.597523D+00  0.158815D+00 -0.379596D+00
     19  -0.402344D+00  0.000000D+00 -0.304680D+00 -0.153540D+00 -0.533100D+00
     20   0.000000D+00 -0.503125D+00  0.000000D+00  0.000000D+00  0.000000D+00
     21   0.388836D-01  0.000000D+00 -0.138383D+00  0.506935D+00 -0.242370D+00
     22   0.111828D+00  0.000000D+00  0.101394D+00 -0.719176D+00  0.286690D+00
     23  -0.469836D+00  0.000000D+00  0.123033D+00 -0.461536D+00 -0.459019D+00
     24  -0.590539D-01  0.000000D+00 -0.384083D+00  0.427376D+00 -0.479191D+00
     25   0.000000D+00 -0.503125D+00  0.000000D+00  0.000000D+00  0.000000D+00
                21            22            23            24            25 
      1  -0.330724D+00 -0.545701D-02  0.191236D+00  0.218061D-02 -0.412678D+00
      2   0.118932D+01  0.137741D-01 -0.280390D+00 -0.102772D-02 -0.979260D+00
      3   0.197022D+00  0.482421D+00  0.218042D+00  0.171633D+00 -0.981676D-01
      4   0.288723D+00 -0.341224D+00  0.298768D+00 -0.113254D+00 -0.139200D+00
      5   0.000000D+00  0.000000D+00  0.000000D+00  0.000000D+00  0.000000D+00
      6   0.355133D-01 -0.301687D-03  0.129608D+00  0.569633D-03  0.581784D+01
      7  -0.154834D+00 -0.316265D+00  0.560691D+00  0.195373D+01  0.611598D+00
      8  -0.187130D+00  0.185240D+00  0.868247D+00 -0.137000D+01  0.864020D+00
      9   0.000000D+00  0.000000D+00  0.000000D+00  0.000000D+00  0.000000D+00
     10  -0.239945D+00  0.617442D+00  0.145774D+01  0.108786D+01 -0.123000D+01
     11  -0.416758D+00 -0.666186D+00  0.121422D+01 -0.105155D+01 -0.126312D+01
     12  -0.824879D+00 -0.699071D-02  0.749131D-01  0.262096D-03 -0.158041D+01
     13  -0.304835D+00  0.223556D+00 -0.405681D+00  0.408029D+00 -0.517560D-01
     14   0.000000D+00  0.000000D+00  0.000000D+00  0.000000D+00  0.000000D+00
     15   0.000000D+00  0.000000D+00  0.000000D+00  0.000000D+00  0.000000D+00
     16  -0.429920D+00 -0.951203D+00 -0.124580D+01 -0.115267D+01 -0.272839D+00
     17   0.474972D+00  0.123229D+01 -0.205549D+00 -0.136881D+01 -0.128424D+01
     18   0.230042D+00  0.264063D+00  0.868890D+00  0.841720D+00  0.760283D-01
     19   0.151778D+00 -0.507352D-01 -0.419585D-01  0.845463D-01 -0.943807D-01
     20   0.000000D+00  0.000000D+00  0.000000D+00  0.000000D+00  0.000000D+00
     21  -0.484466D+00  0.982210D+00 -0.125427D+01  0.111476D+01 -0.271729D+00
     22   0.505459D+00 -0.121542D+01 -0.280178D+00  0.136543D+01 -0.128357D+01
     23   0.697875D-01  0.184257D+00 -0.328560D+00  0.209003D+00 -0.114084D+00
     24   0.281467D+00 -0.234727D+00  0.822633D+00 -0.789592D+00  0.394896D-01
     25   0.000000D+00  0.000000D+00  0.000000D+00  0.000000D+00  0.000000D+00
 NBasis=    25 RedAO= T EigKep=  2.21D-02  NBF=    25
 NBsUse=    25 1.00D-06 EigRej= -1.00D+00 NBFU=    25
 Precomputing XC quadrature grid using
 IXCGrd= 4 IRadAn=           0 IRanWt=          -1 IRanGd=           0 AccXCQ= 0.00D+00.
 SetAtRh:  ITypeU=  24 NETotI=       0 ICharg=*** NETot=       0.
 StAtR1:  I=    1 I1=    1 IA=  8 C=   8.0 OKShel=TTT
                                                  SSP
                                                  224
 StAtR1:  I=    2 I1=    2 IA=  1 C=   1.0 OKShel=T
                                                  S
                                                  1
 StAtR1:  I=    3 I1=    3 IA=  1 C=   1.0 OKShel=T
                                                  S
                                                  1
          I=    1 IA=  8 I1=    1 NAtG= 0 NE=   8.000 C=   0.000 Err=-8.00D+00
          I=    2 IA=  1 I1=    2 NAtG= 0 NE=   1.000 C=   0.000 Err=-1.00D+00
          I=    3 IA=  1 I1=    3 NAtG= 0 NE=   1.000 C=   0.000 Err=-1.00D+00
 Generated NRdTot=       0 NPtTot=           0 NUsed=           0 NTot=          32
 NSgBfM=    25    25    25    25    25 MxSgAt=     3 MxSgA2=     3.
 IGWInf( 1) =          32 (NGWInf)
 IGWInf( 2) =           3 (NAtomA)
 IGWInf( 3) =           0 (IRadAn)
 IGWInf( 4) =          -1 (IRanWt)
 IGWInf( 5) =           0 (IRanGd)
 IGWInf( 6) =           2 (IRType)
 IGWInf( 7) =           0 (NRdTot)
 IGWInf( 8) =           0 (NGWTot)
 IGWInf( 9) =       23214 (LGWBtD)
 IGWInf(10) =           0 (NAtBtD)
 IGWInf(11) =           0 (NIRBtD)
 IGWInf(12) =           0 (NRRBtD)
 IGWInf(13) =           1 (NClRep)
 IGWInf(14) =           0 (ICntr3)
 IGWInf(15) =           0 (IPFlag)
 IGWInf(16) =           0 (IGet)  
 IGWInf(17) =           0         
 IGWInf(18) =          25         
 IGWInf(19) =          25         
 IGWInf(20) =          25         
 IGWInf(21) =          25         
 IGWInf(22) =          25         
 IGWInf(23) =           3         
 IGWInf(24) =           3         
 IGWInf(25) =           0         
 IGWInf(26) =           0         
 IGWInf(27) =           0         
 IGWInf(28) =           0         
 IGWInf(29) =           0         
 IGWInf(30) =           0         
 IGWInf(31) =           0         
 IGWInf(32) =           0         
 IAtBtD: 
              1            2            3
 Leave Link  302 at Sun Mar 15 18:36:11 2015, MaxMem=   134217728 cpu:         0.2
 (Enter /opt/g09_D01_em64t/g09/l401.exe)
 ExpMin= 1.61D-01 ExpMax= 5.48D+03 ExpMxC= 8.25D+02 IAcc=1 IRadAn=         1 AccDes= 0.00D+00
 Harris functional with IExCor=  402 and IRadAn=       1 diagonalized for initial guess.
 HarFok:  IExCor=  402 AccDes= 0.00D+00 IRadAn=         1 IDoV= 1 UseB2=F ITyADJ=14
 ICtDFT=  3500011 ScaDFX=  1.000000  1.000000  1.000000  1.000000
 FoFCou: FMM=F IPFlag=           0 FMFlag=      100000 FMFlg1=           0
         NFxFlg=           0 DoJE=T BraDBF=F KetDBF=T FulRan=T
         wScrn=  0.000000 ICntrl=     500 IOpCl=  0 I1Cent=   200000004 NGrid=           0
         NMat0=    1 NMatS0=      1 NMatT0=    0 NMatD0=    1 NMtDS0=    0 NMtDT0=    0
 Symmetry not used in FoFCou.
 Harris En= -76.7777486621520    
 JPrj=0 DoOrth=F DoCkMO=F.
 Leave Link  401 at Sun Mar 15 18:36:11 2015, MaxMem=   134217728 cpu:         0.2
 (Enter /opt/g09_D01_em64t/g09/l601.exe)
 Copying SCF densities to generalized density rwf, IOpCl= 0 IROHF=0.

 **********************************************************************

            Population analysis using the SCF density.

 **********************************************************************

 Alpha  occ. eigenvalues --  -18.97400  -1.04576  -0.59598  -0.45936  -0.39236
 Alpha virt. eigenvalues --   -0.00733   0.06717   0.64757   0.65293   0.71279
 Alpha virt. eigenvalues --    0.73600   0.86169   1.02846   1.34861   1.39902
 Alpha virt. eigenvalues --    1.47284   2.05304   2.10805   2.29909   2.48488
 Alpha virt. eigenvalues --    2.52034   2.88097   3.14092   3.32144   3.49950
     Molecular Orbital Coefficients:
                           1         2         3         4         5
                           O         O         O         O         O
     Eigenvalues --   -18.97400  -1.04576  -0.59598  -0.45936  -0.39236
   1 1   O  1S          0.99210  -0.21842  -0.00014   0.07225   0.00000
   2        2S          0.02799   0.50523  -0.00074  -0.15788   0.00000
   3        2PX         0.00029   0.06378   0.46738   0.36451   0.00000
   4        2PY         0.00038   0.08818  -0.33562   0.50726   0.00000
   5        2PZ         0.00000   0.00000   0.00000   0.00000   0.69356
   6        3S          0.01355   0.42654   0.00322  -0.30427   0.00000
   7        3PX         0.00034   0.02036   0.19894   0.20493   0.00000
   8        3PY         0.00049   0.02579  -0.14419   0.28641   0.00000
   9        3PZ         0.00000   0.00000   0.00000   0.00000   0.44073
  10        4XX        -0.00931  -0.00063   0.01730   0.01199   0.00000
  11        4YY        -0.00931   0.00019  -0.01798   0.02087   0.00000
  12        4ZZ        -0.00940  -0.00540  -0.00051  -0.00168   0.00000
  13        4XY         0.00001   0.00108   0.00661   0.01675   0.00000
  14        4XZ         0.00000   0.00000   0.00000   0.00000   0.01246
  15        4YZ         0.00000   0.00000   0.00000   0.00000   0.01660
  16 2   H  1S          0.00034   0.14065   0.22985   0.13360   0.00000
  17        2S         -0.00167   0.00041   0.09073   0.06662   0.00000
  18        3PX         0.00011  -0.02482  -0.01733  -0.00541   0.00000
  19        3PY        -0.00006   0.00219  -0.00863   0.01336   0.00000
  20        3PZ         0.00000   0.00000   0.00000   0.00000   0.01879
  21 3   H  1S          0.00035   0.14085  -0.23295   0.12989   0.00000
  22        2S         -0.00167   0.00141  -0.09222   0.06845   0.00000
  23        3PX        -0.00009   0.01074   0.00142   0.01501   0.00000
  24        3PY         0.00008  -0.02226   0.01852  -0.00003   0.00000
  25        3PZ         0.00000   0.00000   0.00000   0.00000   0.01889
                           6         7         8         9        10
                           V         V         V         V         V
     Eigenvalues --    -0.00733   0.06717   0.64757   0.65293   0.71279
   1 1   O  1S         -0.10443   0.00345   0.03112  -0.00041   0.00000
   2        2S          0.18103  -0.01083   0.07993   0.01758   0.00000
   3        2PX         0.14209  -0.36157  -0.39118  -0.19157   0.00000
   4        2PY         0.22303   0.24536  -0.56452   0.12991   0.00000
   5        2PZ         0.00000   0.00000   0.00000   0.00000  -0.92450
   6        3S          1.16919  -0.03249  -0.01752  -0.03402   0.00000
   7        3PX         0.19212  -0.54602   0.37702  -0.02393   0.00000
   8        3PY         0.32831   0.36941   0.57021   0.02673   0.00000
   9        3PZ         0.00000   0.00000   0.00000   0.00000   1.06148
  10        4XX        -0.04906   0.00439   0.23476   0.23813   0.00000
  11        4YY        -0.04036  -0.00544   0.17084  -0.23310   0.00000
  12        4ZZ        -0.04107  -0.00035  -0.05915   0.00798   0.00000
  13        4XY         0.01167   0.00189  -0.10255   0.09936   0.00000
  14        4XZ         0.00000   0.00000   0.00000   0.00000   0.01088
  15        4YZ         0.00000   0.00000   0.00000   0.00000   0.01421
  16 2   H  1S         -0.13567   0.16999   0.50267   0.73520   0.00000
  17        2S         -0.87300   1.21346  -0.54690  -0.86822   0.00000
  18        3PX        -0.01372   0.00720   0.13962   0.09351   0.00000
  19        3PY         0.00189   0.00478  -0.03695   0.04910   0.00000
  20        3PZ         0.00000   0.00000   0.00000   0.00000   0.00383
  21 3   H  1S         -0.15148  -0.15777   0.48684  -0.76286   0.00000
  22        2S         -0.96661  -1.15018  -0.55867   0.89974   0.00000
  23        3PX         0.00477  -0.00354  -0.08194  -0.01314   0.00000
  24        3PY        -0.01250  -0.00934   0.12249  -0.10767   0.00000
  25        3PZ         0.00000   0.00000   0.00000   0.00000   0.00379
                          11        12        13        14        15
                           V         V         V         V         V
     Eigenvalues --     0.73600   0.86169   1.02846   1.34861   1.39902
   1 1   O  1S          0.02483   0.00016  -0.06816   0.00000  -0.02452
   2        2S         -0.66349   0.01153  -1.49637   0.00000  -0.30384
   3        2PX         0.25706  -0.67564  -0.18338   0.00000  -0.03248
   4        2PY         0.38131   0.46798  -0.25330   0.00000  -0.04751
   5        2PZ         0.00000   0.00000   0.00000   0.00028   0.00000
   6        3S          1.03791  -0.01716   3.60498   0.00000   0.82671
   7        3PX        -0.44270   1.53200   0.51516   0.00000   0.25891
   8        3PY        -0.64940  -1.06915   0.71449   0.00000   0.36844
   9        3PZ         0.00000   0.00000   0.00000  -0.00017   0.00000
  10        4XX        -0.07038   0.03978  -0.50697   0.00000  -0.11712
  11        4YY        -0.14596  -0.03029  -0.41173   0.00000  -0.47784
  12        4ZZ        -0.28484   0.00239  -0.29102   0.00000   0.33837
  13        4XY        -0.10540   0.01248   0.15759   0.00000  -0.58814
  14        4XZ         0.00000   0.00000   0.00000   0.57500   0.00000
  15        4YZ         0.00000   0.00000   0.00000  -0.41050   0.00000
  16 2   H  1S          0.60244  -0.18379  -0.21774   0.00000  -0.20861
  17        2S         -0.46141  -0.99510  -0.86127   0.00000  -0.14716
  18        3PX         0.02062   0.14265   0.04174   0.00000  -0.01340
  19        3PY        -0.04940  -0.03208   0.09173   0.00000  -0.26981
  20        3PZ         0.00000   0.00000   0.00000   0.32118   0.00000
  21 3   H  1S          0.57583   0.18502  -0.22126   0.00000  -0.20751
  22        2S         -0.40753   0.98931  -0.84390   0.00000  -0.14754
  23        3PX        -0.05298   0.07607   0.07334   0.00000  -0.24964
  24        3PY        -0.00207  -0.12254   0.06872   0.00000  -0.10264
  25        3PZ         0.00000   0.00000   0.00000  -0.32333   0.00000
                          16        17        18        19        20
                           V         V         V         V         V
     Eigenvalues --     1.47284   2.05304   2.10805   2.29909   2.48488
   1 1   O  1S          0.00000  -0.05160   0.00009  -0.00087   0.00000
   2        2S          0.00000  -0.57861  -0.00036  -0.00223   0.00000
   3        2PX         0.00000  -0.10017  -0.10252  -0.24415   0.00000
   4        2PY         0.00000  -0.14560   0.07152   0.17196   0.00000
   5        2PZ        -0.00834   0.00000   0.00000   0.00000  -0.01769
   6        3S          0.00000   1.44961  -0.00006   0.01319   0.00000
   7        3PX         0.00000   0.37741   0.54869   0.33525   0.00000
   8        3PY         0.00000   0.53870  -0.38692  -0.23183   0.00000
   9        3PZ        -0.18054   0.00000   0.00000   0.00000  -0.42756
  10        4XX         0.00000   0.35611   0.07333   0.69832   0.00000
  11        4YY         0.00000   0.18629  -0.07317  -0.69727   0.00000
  12        4ZZ         0.00000  -1.06004   0.00028  -0.00753   0.00000
  13        4XY         0.00000  -0.28927   0.02951   0.28161   0.00000
  14        4XZ         0.47958   0.00000   0.00000   0.00000  -0.36905
  15        4YZ         0.67379   0.00000   0.00000   0.00000  -0.56468
  16 2   H  1S          0.00000  -0.66475  -0.29541  -0.55059   0.00000
  17        2S          0.00000  -0.10322  -0.08242   0.20484   0.00000
  18        3PX         0.00000  -0.20280  -0.10445  -0.36053   0.00000
  19        3PY         0.00000  -0.08360   0.72374  -0.21065   0.00000
  20        3PZ         0.26258   0.00000   0.00000   0.00000   0.75246
  21 3   H  1S          0.00000  -0.66973   0.29719   0.54052   0.00000
  22        2S          0.00000  -0.10039   0.08148  -0.20868   0.00000
  23        3PX         0.00000  -0.01199  -0.71664   0.07986   0.00000
  24        3PY         0.00000  -0.22401  -0.14296   0.41069   0.00000
  25        3PZ         0.25981   0.00000   0.00000   0.00000   0.79337
                          21        22        23        24        25
                           V         V         V         V         V
     Eigenvalues --     2.52034   2.88097   3.14092   3.32144   3.49950
   1 1   O  1S          0.00000   0.02389  -0.28645   0.00700  -0.37864
   2        2S          0.00000  -0.11605   0.23486  -0.00288   0.07391
   3        2PX         0.00000   0.02816   0.20601  -0.58176  -0.28178
   4        2PY         0.00000   0.04003   0.30247   0.41428  -0.38464
   5        2PZ        -0.00054   0.00000   0.00000   0.00000   0.00000
   6        3S          0.00000   0.14586   3.10273  -0.05678   2.41502
   7        3PX         0.00000   0.28990   0.41030  -1.15520  -0.09767
   8        3PY         0.00000   0.40725   0.60313   0.81027  -0.11099
   9        3PZ        -0.01154   0.00000   0.00000   0.00000   0.00000
  10        4XX         0.00000  -0.08974  -0.29302  -1.14684  -1.87599
  11        4YY         0.00000   0.43215  -0.46215   1.19440  -1.62461
  12        4ZZ         0.00000  -0.00265  -1.27172   0.02343  -1.03529
  13        4XY         0.00000   0.85550  -0.31800  -0.48014   0.36004
  14        4XZ        -0.72670   0.00000   0.00000   0.00000   0.00000
  15        4YZ         0.49040   0.00000   0.00000   0.00000   0.00000
  16 2   H  1S          0.00000  -0.12463  -0.66621   1.18215   0.76524
  17        2S          0.00000  -0.09421  -0.60694   0.58107  -0.24528
  18        3PX         0.00000   0.09004   0.82006  -1.07338  -0.76661
  19        3PY         0.00000  -0.82513  -0.00823  -0.00588  -0.11132
  20        3PZ         0.75291   0.00000   0.00000   0.00000   0.00000
  21 3   H  1S          0.00000  -0.12103  -0.69007  -1.18875   0.73806
  22        2S          0.00000  -0.09381  -0.61562  -0.56255  -0.25669
  23        3PX         0.00000  -0.80793  -0.28840  -0.35133   0.14281
  24        3PY         0.00000  -0.18972   0.78718   1.01658  -0.73627
  25        3PZ        -0.70972   0.00000   0.00000   0.00000   0.00000
     Density Matrix:
                           1         2         3         4         5
   1 1   O  1S          2.07440
   2        2S         -0.18799   0.56194
   3        2PX         0.02525  -0.05133   0.71076
   4        2PY         0.03563  -0.07055   0.06732   0.75547
   5        2PZ         0.00000   0.00000   0.00000   0.00000   0.96205
   6        3S         -0.20342   0.52783  -0.16439  -0.23562   0.00000
   7        3PX         0.02134  -0.04441   0.33796   0.07796   0.00000
   8        3PY         0.03113  -0.06414   0.07731   0.39190   0.00000
   9        3PZ         0.00000   0.00000   0.00000   0.00000   0.61135
  10        4XX        -0.01647  -0.00497   0.02483   0.00043   0.00000
  11        4YY        -0.01553  -0.00690  -0.00157   0.03327   0.00000
  12        4ZZ        -0.01654  -0.00545  -0.00239  -0.00233   0.00000
  13        4XY         0.00196  -0.00421   0.01853   0.01275   0.00000
  14        4XZ         0.00000   0.00000   0.00000   0.00000   0.01729
  15        4YZ         0.00000   0.00000   0.00000   0.00000   0.02302
  16 2   H  1S         -0.04152   0.09961   0.33019   0.00606   0.00000
  17        2S          0.00612  -0.02085   0.13343   0.00676   0.00000
  18        3PX         0.01028  -0.02334  -0.02331   0.00177   0.00000
  19        3PY         0.00086  -0.00199   0.00195   0.01973   0.00000
  20        3PZ         0.00000   0.00000   0.00000   0.00000   0.02607
  21 3   H  1S         -0.04200   0.10167  -0.10510   0.31299   0.00000
  22        2S          0.00599  -0.02014  -0.03612   0.13160   0.00000
  23        3PX        -0.00270   0.00611   0.01365   0.01617   0.00000
  24        3PY         0.00987  -0.02250   0.01445  -0.01639   0.00000
  25        3PZ         0.00000   0.00000   0.00000   0.00000   0.02620
                           6         7         8         9        10
   6        3S          0.54942
   7        3PX        -0.10605   0.16397
   8        3PY        -0.15321   0.06107   0.20697
   9        3PZ         0.00000   0.00000   0.00000   0.38849
  10        4XX        -0.00798   0.01177   0.00183   0.00000   0.00106
  11        4YY        -0.01291   0.00140   0.01714   0.00000   0.00005
  12        4ZZ        -0.00384  -0.00112  -0.00111   0.00000   0.00012
  13        4XY        -0.00923   0.00954   0.00775   0.00000   0.00063
  14        4XZ         0.00000   0.00000   0.00000   0.01099   0.00000
  15        4YZ         0.00000   0.00000   0.00000   0.01463   0.00000
  16 2   H  1S          0.04017   0.15194   0.01750   0.00000   0.01097
  17        2S         -0.03965   0.06342   0.01202   0.00000   0.00477
  18        3PX        -0.01800  -0.01012   0.00062   0.00000  -0.00070
  19        3PY        -0.00632   0.00213   0.01025   0.00000   0.00002
  20        3PZ         0.00000   0.00000   0.00000   0.01657   0.00000
  21 3   H  1S          0.03962  -0.03371   0.14885   0.00000  -0.00513
  22        2S         -0.04109  -0.00858   0.06588   0.00000  -0.00152
  23        3PX         0.00003   0.00716   0.00874   0.00000   0.00040
  24        3PY        -0.01885   0.00645  -0.00651   0.00000   0.00067
  25        3PZ         0.00000   0.00000   0.00000   0.01665   0.00000
                          11        12        13        14        15
  11        4YY         0.00169
  12        4ZZ         0.00012   0.00024
  13        4XY         0.00046  -0.00007   0.00065
  14        4XZ         0.00000   0.00000   0.00000   0.00031
  15        4YZ         0.00000   0.00000   0.00000   0.00041   0.00055
  16 2   H  1S         -0.00264  -0.00221   0.00782   0.00000   0.00000
  17        2S         -0.00045  -0.00029   0.00343   0.00000   0.00000
  18        3PX         0.00039   0.00030  -0.00046   0.00000   0.00000
  19        3PY         0.00087  -0.00006   0.00034   0.00000   0.00000
  20        3PZ         0.00000   0.00000   0.00000   0.00047   0.00062
  21 3   H  1S          0.01384  -0.00173   0.00158   0.00000   0.00000
  22        2S          0.00621  -0.00012   0.00108   0.00000   0.00000
  23        3PX         0.00058  -0.00017   0.00054   0.00000   0.00000
  24        3PY        -0.00068   0.00022   0.00020   0.00000   0.00000
  25        3PZ         0.00000   0.00000   0.00000   0.00047   0.00063
                          16        17        18        19        20
  16 2   H  1S          0.18092
  17        2S          0.05962   0.02535
  18        3PX        -0.01640  -0.00389   0.00189
  19        3PY         0.00022   0.00022   0.00005   0.00052
  20        3PZ         0.00000   0.00000   0.00000   0.00000   0.00071
  21 3   H  1S         -0.03276  -0.02485  -0.00032   0.00811   0.00000
  22        2S         -0.02371  -0.00761   0.00239   0.00343   0.00000
  23        3PX         0.00769   0.00227  -0.00074   0.00042   0.00000
  24        3PY         0.00225   0.00334   0.00046  -0.00042   0.00000
  25        3PZ         0.00000   0.00000   0.00000   0.00000   0.00071
                          21        22        23        24        25
  21 3   H  1S          0.18195
  22        2S          0.06115   0.02639
  23        3PX         0.00626   0.00182   0.00069
  24        3PY        -0.01491  -0.00348  -0.00043   0.00168
  25        3PZ         0.00000   0.00000   0.00000   0.00000   0.00071
    Full Mulliken population analysis:
                           1         2         3         4         5
   1 1   O  1S          2.07440
   2        2S         -0.04393   0.56194
   3        2PX         0.00000   0.00000   0.71076
   4        2PY         0.00000   0.00000   0.00000   0.75547
   5        2PZ         0.00000   0.00000   0.00000   0.00000   0.96205
   6        3S         -0.03403   0.40308   0.00000   0.00000   0.00000
   7        3PX         0.00000   0.00000   0.16949   0.00000   0.00000
   8        3PY         0.00000   0.00000   0.00000   0.19655   0.00000
   9        3PZ         0.00000   0.00000   0.00000   0.00000   0.30660
  10        4XX        -0.00055  -0.00272   0.00000   0.00000   0.00000
  11        4YY        -0.00052  -0.00377   0.00000   0.00000   0.00000
  12        4ZZ        -0.00055  -0.00298   0.00000   0.00000   0.00000
  13        4XY         0.00000   0.00000   0.00000   0.00000   0.00000
  14        4XZ         0.00000   0.00000   0.00000   0.00000   0.00000
  15        4YZ         0.00000   0.00000   0.00000   0.00000   0.00000
  16 2   H  1S         -0.00144   0.02463   0.09452   0.00000   0.00000
  17        2S          0.00042  -0.00791   0.01972   0.00000   0.00000
  18        3PX        -0.00059   0.00788   0.00891   0.00000   0.00000
  19        3PY         0.00000   0.00000   0.00000   0.00281   0.00000
  20        3PZ         0.00000   0.00000   0.00000   0.00000   0.00371
  21 3   H  1S         -0.00146   0.02514   0.01004   0.08446   0.00000
  22        2S          0.00041  -0.00764   0.00178   0.01834   0.00000
  23        3PX        -0.00005   0.00069   0.00114   0.00267   0.00000
  24        3PY        -0.00053   0.00716   0.00239   0.00531   0.00000
  25        3PZ         0.00000   0.00000   0.00000   0.00000   0.00373
                           6         7         8         9        10
   6        3S          0.54942
   7        3PX         0.00000   0.16397
   8        3PY         0.00000   0.00000   0.20697
   9        3PZ         0.00000   0.00000   0.00000   0.38849
  10        4XX        -0.00558   0.00000   0.00000   0.00000   0.00106
  11        4YY        -0.00902   0.00000   0.00000   0.00000   0.00002
  12        4ZZ        -0.00269   0.00000   0.00000   0.00000   0.00004
  13        4XY         0.00000   0.00000   0.00000   0.00000   0.00000
  14        4XZ         0.00000   0.00000   0.00000   0.00000   0.00000
  15        4YZ         0.00000   0.00000   0.00000   0.00000   0.00000
  16 2   H  1S          0.01712   0.08864   0.00000   0.00000   0.00609
  17        2S         -0.02708   0.03053   0.00000   0.00000   0.00224
  18        3PX         0.00469   0.00120   0.00000   0.00000   0.00028
  19        3PY         0.00000   0.00000   0.00284   0.00000   0.00000
  20        3PZ         0.00000   0.00000   0.00000   0.00458   0.00000
  21 3   H  1S          0.01688   0.00657   0.08186   0.00000  -0.00108
  22        2S         -0.02806   0.00138   0.02989   0.00000  -0.00062
  23        3PX         0.00000   0.00166   0.00109   0.00000  -0.00003
  24        3PY         0.00463   0.00080   0.00048   0.00000  -0.00015
  25        3PZ         0.00000   0.00000   0.00000   0.00460   0.00000
                          11        12        13        14        15
  11        4YY         0.00169
  12        4ZZ         0.00004   0.00024
  13        4XY         0.00000   0.00000   0.00065
  14        4XZ         0.00000   0.00000   0.00000   0.00031
  15        4YZ         0.00000   0.00000   0.00000   0.00000   0.00055
  16 2   H  1S         -0.00044  -0.00037   0.00000   0.00000   0.00000
  17        2S         -0.00018  -0.00012   0.00000   0.00000   0.00000
  18        3PX        -0.00006  -0.00005   0.00000   0.00000   0.00000
  19        3PY         0.00000   0.00000   0.00013   0.00000   0.00000
  20        3PZ         0.00000   0.00000   0.00000   0.00019   0.00000
  21 3   H  1S          0.00708  -0.00029  -0.00033   0.00000   0.00000
  22        2S          0.00287  -0.00005  -0.00004   0.00000   0.00000
  23        3PX         0.00015  -0.00001   0.00013   0.00000   0.00000
  24        3PY         0.00021  -0.00003   0.00004   0.00000   0.00000
  25        3PZ         0.00000   0.00000   0.00000  -0.00006   0.00023
                          16        17        18        19        20
  16 2   H  1S          0.18092
  17        2S          0.03925   0.02535
  18        3PX         0.00000   0.00000   0.00189
  19        3PY         0.00000   0.00000   0.00000   0.00052
  20        3PZ         0.00000   0.00000   0.00000   0.00000   0.00071
  21 3   H  1S         -0.00140  -0.00517   0.00001   0.00024   0.00000
  22        2S         -0.00493  -0.00375  -0.00025   0.00025   0.00000
  23        3PX         0.00032   0.00023   0.00003   0.00002   0.00000
  24        3PY        -0.00007  -0.00024   0.00002   0.00001   0.00000
  25        3PZ         0.00000   0.00000   0.00000   0.00000   0.00001
                          21        22        23        24        25
  21 3   H  1S          0.18195
  22        2S          0.04025   0.02639
  23        3PX         0.00000   0.00000   0.00069
  24        3PY         0.00000   0.00000   0.00000   0.00168
  25        3PZ         0.00000   0.00000   0.00000   0.00000   0.00071
     Gross orbital populations:
                           1
   1 1   O  1S          1.99158
   2        2S          0.96154
   3        2PX         1.01876
   4        2PY         1.06559
   5        2PZ         1.27609
   6        3S          0.88939
   7        3PX         0.46425
   8        3PY         0.51968
   9        3PZ         0.70428
  10        4XX        -0.00099
  11        4YY        -0.00194
  12        4ZZ        -0.00681
  13        4XY         0.00059
  14        4XZ         0.00043
  15        4YZ         0.00079
  16 2   H  1S          0.44286
  17        2S          0.07330
  18        3PX         0.02397
  19        3PY         0.00681
  20        3PZ         0.00919
  21 3   H  1S          0.44477
  22        2S          0.07623
  23        3PX         0.00874
  24        3PY         0.02169
  25        3PZ         0.00922
          Condensed to atoms (all electrons):
               1          2          3
     1  O    8.316931   0.282899   0.283390
     2  H    0.282899   0.287879  -0.014656
     3  H    0.283390  -0.014656   0.291923
 Mulliken charges:
               1
     1  O   -0.883220
     2  H    0.443878
     3  H    0.439342
     4  O   -0.834000
     5  H    0.417000
     6  H    0.417000
 Sum of Mulliken charges =   0.00000
 Mulliken charges with hydrogens summed into heavy atoms:
               1
     1  O    0.000000
     4  O    0.000000
 N-N= 8.811952536523D+00 E-N=-2.024837637542D+02  KE= 7.752900477761D+01
 Orbital energies and kinetic energies (alpha):
                                 1                 2
   1         O               -18.974001         28.984964
   2         O                -1.045762          2.778565
   3         O                -0.595980          2.034204
   4         O                -0.459362          2.439923
   5         O                -0.392365          2.526847
   6         V                -0.007330          1.237262
   7         V                 0.067167          1.324013
   8         V                 0.647571          2.857353
   9         V                 0.652931          2.090033
  10         V                 0.712790          3.323792
  11         V                 0.735999          2.439245
  12         V                 0.861694          2.924483
  13         V                 1.028462          2.311149
  14         V                 1.348615          2.512568
  15         V                 1.399023          2.548849
  16         V                 1.472836          2.632142
  17         V                 2.053044          3.408298
  18         V                 2.108051          3.113022
  19         V                 2.299089          3.775562
  20         V                 2.484881          3.508307
  21         V                 2.520340          3.598016
  22         V                 2.880969          4.021362
  23         V                 3.140919          6.837018
  24         V                 3.321437          5.578468
  25         V                 3.499505          8.217121
 Total kinetic energy from orbitals= 7.752900477761D+01
 No NMR shielding tensors so no spin-rotation constants.
 Leave Link  601 at Sun Mar 15 18:36:11 2015, MaxMem=   134217728 cpu:         0.2
 (Enter /opt/g09_D01_em64t/g09/l120.exe)
 SvSCFP is copying densities from files   528 and   530 to   603.
 ONIOM: saving gridpoint  2
 ONIOM: restoring gridpoint 17
 ONIOM: restoring gridpoint  1 on chk file.
 ONIOM: generating point  1 -- low level on model system.
 ChrgS2: IScale=     5     5     5     5     0     0 (distance 6..1 bonds)
 ChrgS2:  Scale=  1.00  1.00  1.00  1.00  0.00  0.00 (distance 6..1 bonds)
 Generating MM parameters for model system.
 Include all MM classes

 MM sanity checks:
 All charges sum to:                0.00000000
 Charges of atoms sum to:           0.00000000
       3 point charges sum to:      0.00000000
 MMInit generated parameter data with length LenPar=         553.

 --------------------------------------------------------------------------------
 #P Test IOp(2/15=1,5/32=2,5/38=1) UFF

 ch2nh2
 Point  1 -- low level on model system.

 0,1
  O-O_3--0.834000                                  -0.368705030000     -2.194244570000      0.000000000000
  H-H_-0.417000                                     0.591294970000     -2.194244570000      0.000000000000
  H-H_-0.417000                                    -0.689159620000     -1.289308740000      0.000000000000
  O-#6--0.834000                                   -2.347122270000      0.341726610000      0.000000000000
  H-#6-0.417000                                    -1.387122270000      0.341726610000      0.000000000000
  H-#6-0.417000                                    -2.667576860000      1.246662440000      0.000000000000

 1 2 1.000 3 1.000
 2 1 1.000
 3 1 1.000
 4 5 1.000 6 1.000
 5 4 1.000
 6 4 1.000
 
 --------------------------------------------------------------------------------

 Leave Link  120 at Sun Mar 15 18:36:11 2015, MaxMem=   134217728 cpu:         0.0
 (Enter /opt/g09_D01_em64t/g09/l301.exe)
 Standard basis: Dummy (5D, 7F)
                         Coordinates in L301:                         
 ---------------------------------------------------------------------
 Center     Atomic      Atomic             Coordinates (Angstroms)
 Number     Number       Type             X           Y           Z
 ---------------------------------------------------------------------
      1          8    10081003       -0.368705   -2.194245    0.000000
      2          1    10011000        0.591295   -2.194245    0.000000
      3          1    10011000       -0.689160   -1.289309    0.000000
      4          8           6       -2.347122    0.341727    0.000000
      5          1           6       -1.387122    0.341727    0.000000
      6          1           6       -2.667577    1.246662    0.000000
 ---------------------------------------------------------------------
 DispEFB:  Using electric field lambdas:
  0.100000000000D+01  0.100000000000D+01  0.100000000000D+01
 LdAtmC:  AtmChg=     2.000000     1.000000     1.000000    -0.834000     0.417000
 LdAtmC:  AtmChg=     0.417000
 AtZEff=     -6.0000000     -1.0000000     -1.0000000     -6.0000000     -1.0000000
 AtZEff=     -1.0000000
     3 basis functions,     3 primitive gaussians,     3 cartesian basis functions
     2 alpha electrons        2 beta electrons
       nuclear repulsion energy         2.2160889812 Hartrees.
 Nuclear repulsion from inactive atom pairs=       -0.3247219173 Hartrees.
 IS=     1 IAt=     1 ISR=     1 T=0 IP=      1 IndIP=      1 IndIPD=      0 C=  7.127055D-01  0.000000D+00                             NZ=T
 IS=     2 IAt=     2 ISR=     1 T=0 IP=      1 IndIP=      2 IndIPD=      0 C=  7.127055D-01  0.000000D+00                             NZ=T
 IS=     3 IAt=     3 ISR=     1 T=0 IP=      1 IndIP=      3 IndIPD=      0 C=  7.127055D-01  0.000000D+00                             NZ=T
 IExCor=    0 DFT=F Ex=HF Corr=None ExCW=0 ScaHFX=  1.000000
 ScaDFX=  1.000000  1.000000  1.000000  1.000000 ScalE2=  1.000000  1.000000
 IRadAn=      0 IRanWt=     -1 IRanGd=            0 ICorTp=0 IEmpDi=  4
 NAtoms=    6 NActive=    3 NUniq=    3 SFac= 1.00D+00 NAtFMM=   60 NAOKFM=F Big=F
 Integral buffers will be    131072 words long.
 Raffenetti 1 integral format.
 Two-electron integral symmetry is turned off.
 Leave Link  301 at Sun Mar 15 18:36:11 2015, MaxMem=   134217728 cpu:         0.0
 (Enter /opt/g09_D01_em64t/g09/l120.exe)
 SvSCFP did not find density file   528.
 ONIOM: saving gridpoint  1
 ONIOM: restoring gridpoint  3
 ONIOM: calculating energy.
 ONIOM: gridpoint  1 method:  low   system:  model energy:     0.324721917312
 ONIOM: gridpoint  2 method:  high  system:  model energy:     0.324721917312
 ONIOM: gridpoint  3 method:  low   system:  real  energy:     0.000000000000
 ONIOM: extrapolated energy =       0.000000000000
 ONIOM: calculating electric field derivatives.
 ONIOM: Integrating ONIOM file  4 number   619
 ONIOM: Integrating ONIOM file  5 number   695
 Nuclear Quadrupole Tensors: 
                 1             2             3             4             5 
      1  -0.111567D+01 -0.309419D+00  0.826483D-01  0.000000D+00  0.000000D+00
      2   0.766373D+00  0.116932D-01  0.145213D+00  0.000000D+00  0.000000D+00
      3  -0.605182D+00  0.124359D+00 -0.271327D+00  0.000000D+00  0.000000D+00
      4   0.000000D+00  0.000000D+00  0.000000D+00  0.000000D+00  0.000000D+00
      5   0.000000D+00  0.000000D+00  0.000000D+00  0.000000D+00  0.000000D+00
      6   0.172085D+01  0.185060D+00  0.188679D+00  0.000000D+00  0.000000D+00
                 6 
      1   0.000000D+00
      2   0.000000D+00
      3   0.000000D+00
      4   0.000000D+00
      5   0.000000D+00
      6   0.000000D+00
 Saving ESP charges from gridpoint 2
 Leave Link  120 at Sun Mar 15 18:36:11 2015, MaxMem=   134217728 cpu:         0.0
 (Enter /opt/g09_D01_em64t/g09/l9999.exe)

 This type of calculation cannot be archived.


 NATURE REVEALS EVERY SECRET ONCE.
                    - RALPH WALDO EMERSON
 Job cpu time:       0 days  0 hours  0 minutes  1.3 seconds.
 File lengths (MBytes):  RWF=      5 Int=      0 D2E=      0 Chk=      1 Scr=      1
 Normal termination of Gaussian 09 at Sun Mar 15 18:36:11 2015.
