 Entering Gaussian System, Link 0=g09
 Input=highao.gjf
 Output=highao.log
 Initial command:
 /opt/g09_D01_em64t/g09/l1.exe "/tmp/Gau-2013.inp" -scrdir="/tmp/"
 Entering Link 1 = /opt/g09_D01_em64t/g09/l1.exe PID=      2014.
  
 Copyright (c) 1988,1990,1992,1993,1995,1998,2003,2009,2013,
            Gaussian, Inc.  All Rights Reserved.
  
 This is part of the Gaussian(R) 09 program.  It is based on
 the Gaussian(R) 03 system (copyright 2003, Gaussian, Inc.),
 the Gaussian(R) 98 system (copyright 1998, Gaussian, Inc.),
 the Gaussian(R) 94 system (copyright 1995, Gaussian, Inc.),
 the Gaussian 92(TM) system (copyright 1992, Gaussian, Inc.),
 the Gaussian 90(TM) system (copyright 1990, Gaussian, Inc.),
 the Gaussian 88(TM) system (copyright 1988, Gaussian, Inc.),
 the Gaussian 86(TM) system (copyright 1986, Carnegie Mellon
 University), and the Gaussian 82(TM) system (copyright 1983,
 Carnegie Mellon University). Gaussian is a federally registered
 trademark of Gaussian, Inc.
  
 This software contains proprietary and confidential information,
 including trade secrets, belonging to Gaussian, Inc.
  
 This software is provided under written license and may be
 used, copied, transmitted, or stored only in accord with that
 written license.
  
 The following legend is applicable only to US Government
 contracts under FAR:
  
                    RESTRICTED RIGHTS LEGEND
  
 Use, reproduction and disclosure by the US Government is
 subject to restrictions as set forth in subparagraphs (a)
 and (c) of the Commercial Computer Software - Restricted
 Rights clause in FAR 52.227-19.
  
 Gaussian, Inc.
 340 Quinnipiac St., Bldg. 40, Wallingford CT 06492
  
  
 ---------------------------------------------------------------
 Warning -- This program may not be used in any manner that
 competes with the business of Gaussian, Inc. or will provide
 assistance to any competitor of Gaussian, Inc.  The licensee
 of this program is prohibited from giving any competitor of
 Gaussian, Inc. access to this program.  By using this program,
 the user acknowledges that Gaussian, Inc. is engaged in the
 business of creating and licensing software in the field of
 computational chemistry and represents and warrants to the
 licensee that it is not a competitor of Gaussian, Inc. and that
 it will not use this program in any manner prohibited above.
 ---------------------------------------------------------------
  

 Cite this work as:
 Gaussian 09, Revision D.01,
 M. J. Frisch, G. W. Trucks, H. B. Schlegel, G. E. Scuseria, 
 M. A. Robb, J. R. Cheeseman, G. Scalmani, V. Barone, B. Mennucci, 
 G. A. Petersson, H. Nakatsuji, M. Caricato, X. Li, H. P. Hratchian, 
 A. F. Izmaylov, J. Bloino, G. Zheng, J. L. Sonnenberg, M. Hada, 
 M. Ehara, K. Toyota, R. Fukuda, J. Hasegawa, M. Ishida, T. Nakajima, 
 Y. Honda, O. Kitao, H. Nakai, T. Vreven, J. A. Montgomery, Jr., 
 J. E. Peralta, F. Ogliaro, M. Bearpark, J. J. Heyd, E. Brothers, 
 K. N. Kudin, V. N. Staroverov, T. Keith, R. Kobayashi, J. Normand, 
 K. Raghavachari, A. Rendell, J. C. Burant, S. S. Iyengar, J. Tomasi, 
 M. Cossi, N. Rega, J. M. Millam, M. Klene, J. E. Knox, J. B. Cross, 
 V. Bakken, C. Adamo, J. Jaramillo, R. Gomperts, R. E. Stratmann, 
 O. Yazyev, A. J. Austin, R. Cammi, C. Pomelli, J. W. Ochterski, 
 R. L. Martin, K. Morokuma, V. G. Zakrzewski, G. A. Voth, 
 P. Salvador, J. J. Dannenberg, S. Dapprich, A. D. Daniels, 
 O. Farkas, J. B. Foresman, J. V. Ortiz, J. Cioslowski, 
 and D. J. Fox, Gaussian, Inc., Wallingford CT, 2013.
 
 ******************************************
 Gaussian 09:  EM64L-G09RevD.01 24-Apr-2013
                15-Mar-2015 
 ******************************************
 -----------------------------------------------------------------
 #P B3LYP/6-31G(D,P) nosymm iop(2/12=3,3/33=1) guess=only pop=full
 -----------------------------------------------------------------
 1/38=1/1;
 2/12=3,15=1,17=6,18=5,40=1/2;
 3/5=1,6=6,7=101,11=2,16=1,25=1,30=1,33=1,74=-5,89=1/1,2;
 4//1;
 6/7=3,28=1/1;
 99/5=2/99;
 Leave Link    1 at Sun Mar 15 18:45:34 2015, MaxMem=           0 cpu:         0.0
 (Enter /opt/g09_D01_em64t/g09/l101.exe)
 ---------------------------------------------
 ch2nh2 Point 2 -- high level on model system.
 ---------------------------------------------
 Symbolic Z-matrix:
 Charge =  0 Multiplicity = 1
 O                    -0.36871  -2.19424   0. 
 H                     0.59129  -2.19424   0. 
 H                    -0.68916  -1.28931   0. 
 O                    -2.34712   0.34173   0. 
 H                    -1.38712   0.34173   0. 
 H                    -2.66758   1.24666   0. 
 
 NAtoms=      6 NQM=        6 NQMF=       0 NMMI=      0 NMMIF=      0
                NMic=       0 NMicF=      0.
                    Isotopes and Nuclear Properties:
 (Nuclear quadrupole moments (NQMom) in fm**2, nuclear magnetic moments (NMagM)
  in nuclear magnetons)

  Atom         1           2           3           4           5           6
 IAtWgt=          16           1           1          16           1           1
 AtmWgt=  15.9949146   1.0078250   1.0078250  15.9949146   1.0078250   1.0078250
 NucSpn=           0           1           1           0           1           1
 AtZEff=   0.0000000   0.0000000   0.0000000   0.0000000   0.0000000   0.0000000
 NQMom=    0.0000000   0.0000000   0.0000000   0.0000000   0.0000000   0.0000000
 NMagM=    0.0000000   2.7928460   2.7928460   0.0000000   2.7928460   2.7928460
 AtZNuc=   8.0000000   1.0000000   1.0000000   8.0000000   1.0000000   1.0000000
 Leave Link  101 at Sun Mar 15 18:45:34 2015, MaxMem=    33554432 cpu:         0.1
 (Enter /opt/g09_D01_em64t/g09/l202.exe)
                          Input orientation:                          
 ---------------------------------------------------------------------
 Center     Atomic      Atomic             Coordinates (Angstroms)
 Number     Number       Type             X           Y           Z
 ---------------------------------------------------------------------
      1          8           0       -0.368705   -2.194245    0.000000
      2          1           0        0.591295   -2.194245    0.000000
      3          1           0       -0.689160   -1.289309    0.000000
      4          8           0       -2.347122    0.341727    0.000000
      5          1           0       -1.387122    0.341727    0.000000
      6          1           0       -2.667577    1.246662    0.000000
 ---------------------------------------------------------------------
                    Distance matrix (angstroms):
                    1          2          3          4          5
     1  O    0.000000
     2  H    0.960000   0.000000
     3  H    0.960000   1.567952   0.000000
     4  O    3.216409   3.881423   2.325751   0.000000
     5  H    2.732823   3.216409   1.774099   0.960000   0.000000
     6  H    4.138194   4.739207   3.216409   0.960000   1.567952
                    6
     6  H    0.000000
 Symmetry turned off by external request.
 Stoichiometry    H4O2
 Framework group  CS[SG(H4O2)]
 Deg. of freedom     9
 Full point group                 CS      NOp   2
 Rotational constants (GHZ):    416.7917648      5.2904637      5.2241519
 Leave Link  202 at Sun Mar 15 18:45:34 2015, MaxMem=    33554432 cpu:         0.0
 (Enter /opt/g09_D01_em64t/g09/l301.exe)
 Standard basis: 6-31G(d,p) (6D, 7F)
                         Coordinates in L301:                         
 ---------------------------------------------------------------------
 Center     Atomic      Atomic             Coordinates (Angstroms)
 Number     Number       Type             X           Y           Z
 ---------------------------------------------------------------------
      1          8           0       -0.368705   -2.194245    0.000000
      2          1           0        0.591295   -2.194245    0.000000
      3          1           0       -0.689160   -1.289309    0.000000
      4          8           0       -2.347122    0.341727    0.000000
      5          1           0       -1.387122    0.341727    0.000000
      6          1           0       -2.667577    1.246662    0.000000
 ---------------------------------------------------------------------
 FixB: optimizing general contractions.
 Ernie: Thresh=  0.10000D-02 Tol=  0.10000D-05 Strict=F.
 IA=     1 ShT= 0 ShC= 0 NL=   1 NS=   0.
 IA=     1 L=0 SC=0 ISt=    0 NBk=    0 NP=    0 IndPr=    0.
 IA=     1 ShT= 1 ShC= 0 NL=   2 NS=   1.
 IA=     1 L=1 SC=0 ISt=    0 NBk=    0 NP=    0 IndPr=    0.
 IA=     1 ShT= 2 ShC= 2 NL=   1 NS=   1.
 IA=     1 L=2 SC=2 ISt=    0 NBk=    0 NP=    0 IndPr=    0.
 IA=     2 ShT= 0 ShC= 0 NL=   2 NS=   1.
 IA=     2 L=0 SC=0 ISt=    0 NBk=    0 NP=    0 IndPr=    0.
 IA=     2 ShT= 1 ShC= 1 NL=   1 NS=   1.
 IA=     2 L=1 SC=1 ISt=    0 NBk=    0 NP=    0 IndPr=    0.
 IA=     3 ShT= 0 ShC= 0 NL=   2 NS=   1.
 IA=     3 L=0 SC=0 ISt=    0 NBk=    0 NP=    0 IndPr=    0.
 IA=     3 ShT= 1 ShC= 1 NL=   1 NS=   1.
 IA=     3 L=1 SC=1 ISt=    0 NBk=    0 NP=    0 IndPr=    0.
 IA=     4 ShT= 0 ShC= 0 NL=   1 NS=   0.
 IA=     4 L=0 SC=0 ISt=    0 NBk=    0 NP=    0 IndPr=    0.
 IA=     4 ShT= 1 ShC= 0 NL=   2 NS=   1.
 IA=     4 L=1 SC=0 ISt=    0 NBk=    0 NP=    0 IndPr=    0.
 IA=     4 ShT= 2 ShC= 2 NL=   1 NS=   1.
 IA=     4 L=2 SC=2 ISt=    0 NBk=    0 NP=    0 IndPr=    0.
 IA=     5 ShT= 0 ShC= 0 NL=   2 NS=   1.
 IA=     5 L=0 SC=0 ISt=    0 NBk=    0 NP=    0 IndPr=    0.
 IA=     5 ShT= 1 ShC= 1 NL=   1 NS=   1.
 IA=     5 L=1 SC=1 ISt=    0 NBk=    0 NP=    0 IndPr=    0.
 IA=     6 ShT= 0 ShC= 0 NL=   2 NS=   1.
 IA=     6 L=0 SC=0 ISt=    0 NBk=    0 NP=    0 IndPr=    0.
 IA=     6 ShT= 1 ShC= 1 NL=   1 NS=   1.
 IA=     6 L=1 SC=1 ISt=    0 NBk=    0 NP=    0 IndPr=    0.
 LdAtmC:  AtmChg=     8.000000     1.000000     1.000000     8.000000     1.000000
 LdAtmC:  AtmChg=     1.000000
 AtZEff=     -5.6000000     -1.0000000     -1.0000000     -5.6000000     -1.0000000
 AtZEff=     -1.0000000
    50 basis functions,    84 primitive gaussians,    50 cartesian basis functions
    10 alpha electrons       10 beta electrons
       nuclear repulsion energy        35.0658062478 Hartrees.
 IS=     1 IAt=     1 ISR=     1 T=0 IP=      1 IndIP=      1 IndIPD=      0 C=  8.317237D-01  0.000000D+00                             NZ=T
 IS=     1 IAt=     1 ISR=     1 T=0 IP=      2 IndIP=      2 IndIPD=      1 C=  1.530816D+00  0.000000D+00                             NZ=T
 IS=     1 IAt=     1 ISR=     1 T=0 IP=      3 IndIP=      3 IndIPD=      2 C=  2.477149D+00  0.000000D+00                             NZ=T
 IS=     1 IAt=     1 ISR=     1 T=0 IP=      4 IndIP=      4 IndIPD=      3 C=  3.256281D+00  0.000000D+00                             NZ=T
 IS=     1 IAt=     1 ISR=     1 T=0 IP=      5 IndIP=      5 IndIPD=      4 C=  2.792893D+00  0.000000D+00                             NZ=T
 IS=     1 IAt=     1 ISR=     1 T=0 IP=      6 IndIP=      6 IndIPD=      5 C=  9.549377D-01  0.000000D+00                             NZ=T
 IS=     2 IAt=     1 ISR=     2 T=1 IP=      1 IndIP=      7 IndIPD=      0 C= -6.179340D-01  3.116944D+00                             NZ=T
 IS=     2 IAt=     1 ISR=     2 T=1 IP=      2 IndIP=      8 IndIPD=      1 C= -2.757209D-01  2.401438D+00                             NZ=T
 IS=     2 IAt=     1 ISR=     2 T=1 IP=      3 IndIP=      9 IndIPD=      2 C=  8.142076D-01  1.054360D+00                             NZ=T
 IS=     3 IAt=     1 ISR=     3 T=1 IP=      1 IndIP=     10 IndIPD=      0 C=  2.669562D-01  2.774320D-01                             NZ=T
 IS=     4 IAt=     1 ISR=     4 T=2 IP=      1 IndIP=     11 IndIPD=      1 C=  0.000000D+00  0.000000D+00  1.113825D+00  0.000000D+00 NZ=T
 IS=     5 IAt=     2 ISR=     1 T=0 IP=      1 IndIP=     12 IndIPD=      0 C=  2.149354D-01  0.000000D+00                             NZ=T
 IS=     5 IAt=     2 ISR=     1 T=0 IP=      2 IndIP=     13 IndIPD=      1 C=  3.645712D-01  0.000000D+00                             NZ=T
 IS=     5 IAt=     2 ISR=     1 T=0 IP=      3 IndIP=     14 IndIPD=      2 C=  4.150514D-01  0.000000D+00                             NZ=T
 IS=     6 IAt=     2 ISR=     2 T=0 IP=      1 IndIP=     15 IndIPD=      0 C=  1.813806D-01  0.000000D+00                             NZ=T
 IS=     7 IAt=     2 ISR=     3 T=1 IP=      1 IndIP=     16 IndIPD=      0 C=  0.000000D+00  1.605761D+00                             NZ=T
 IS=     8 IAt=     3 ISR=     1 T=0 IP=      1 IndIP=     17 IndIPD=      0 C=  2.149354D-01  0.000000D+00                             NZ=T
 IS=     8 IAt=     3 ISR=     1 T=0 IP=      2 IndIP=     18 IndIPD=      1 C=  3.645712D-01  0.000000D+00                             NZ=T
 IS=     8 IAt=     3 ISR=     1 T=0 IP=      3 IndIP=     19 IndIPD=      2 C=  4.150514D-01  0.000000D+00                             NZ=T
 IS=     9 IAt=     3 ISR=     2 T=0 IP=      1 IndIP=     20 IndIPD=      0 C=  1.813806D-01  0.000000D+00                             NZ=T
 IS=    10 IAt=     3 ISR=     3 T=1 IP=      1 IndIP=     21 IndIPD=      0 C=  0.000000D+00  1.605761D+00                             NZ=T
 IS=    11 IAt=     4 ISR=     1 T=0 IP=      1 IndIP=     22 IndIPD=      0 C=  8.317237D-01  0.000000D+00                             NZ=T
 IS=    11 IAt=     4 ISR=     1 T=0 IP=      2 IndIP=     23 IndIPD=      1 C=  1.530816D+00  0.000000D+00                             NZ=T
 IS=    11 IAt=     4 ISR=     1 T=0 IP=      3 IndIP=     24 IndIPD=      2 C=  2.477149D+00  0.000000D+00                             NZ=T
 IS=    11 IAt=     4 ISR=     1 T=0 IP=      4 IndIP=     25 IndIPD=      3 C=  3.256281D+00  0.000000D+00                             NZ=T
 IS=    11 IAt=     4 ISR=     1 T=0 IP=      5 IndIP=     26 IndIPD=      4 C=  2.792893D+00  0.000000D+00                             NZ=T
 IS=    11 IAt=     4 ISR=     1 T=0 IP=      6 IndIP=     27 IndIPD=      5 C=  9.549377D-01  0.000000D+00                             NZ=T
 IS=    12 IAt=     4 ISR=     2 T=1 IP=      1 IndIP=     28 IndIPD=      0 C= -6.179340D-01  3.116944D+00                             NZ=T
 IS=    12 IAt=     4 ISR=     2 T=1 IP=      2 IndIP=     29 IndIPD=      1 C= -2.757209D-01  2.401438D+00                             NZ=T
 IS=    12 IAt=     4 ISR=     2 T=1 IP=      3 IndIP=     30 IndIPD=      2 C=  8.142076D-01  1.054360D+00                             NZ=T
 IS=    13 IAt=     4 ISR=     3 T=1 IP=      1 IndIP=     31 IndIPD=      0 C=  2.669562D-01  2.774320D-01                             NZ=T
 IS=    14 IAt=     4 ISR=     4 T=2 IP=      1 IndIP=     32 IndIPD=      2 C=  0.000000D+00  0.000000D+00  1.113825D+00  0.000000D+00 NZ=T
 IS=    15 IAt=     5 ISR=     1 T=0 IP=      1 IndIP=     33 IndIPD=      0 C=  2.149354D-01  0.000000D+00                             NZ=T
 IS=    15 IAt=     5 ISR=     1 T=0 IP=      2 IndIP=     34 IndIPD=      1 C=  3.645712D-01  0.000000D+00                             NZ=T
 IS=    15 IAt=     5 ISR=     1 T=0 IP=      3 IndIP=     35 IndIPD=      2 C=  4.150514D-01  0.000000D+00                             NZ=T
 IS=    16 IAt=     5 ISR=     2 T=0 IP=      1 IndIP=     36 IndIPD=      0 C=  1.813806D-01  0.000000D+00                             NZ=T
 IS=    17 IAt=     5 ISR=     3 T=1 IP=      1 IndIP=     37 IndIPD=      0 C=  0.000000D+00  1.605761D+00                             NZ=T
 IS=    18 IAt=     6 ISR=     1 T=0 IP=      1 IndIP=     38 IndIPD=      0 C=  2.149354D-01  0.000000D+00                             NZ=T
 IS=    18 IAt=     6 ISR=     1 T=0 IP=      2 IndIP=     39 IndIPD=      1 C=  3.645712D-01  0.000000D+00                             NZ=T
 IS=    18 IAt=     6 ISR=     1 T=0 IP=      3 IndIP=     40 IndIPD=      2 C=  4.150514D-01  0.000000D+00                             NZ=T
 IS=    19 IAt=     6 ISR=     2 T=0 IP=      1 IndIP=     41 IndIPD=      0 C=  1.813806D-01  0.000000D+00                             NZ=T
 IS=    20 IAt=     6 ISR=     3 T=1 IP=      1 IndIP=     42 IndIPD=      0 C=  0.000000D+00  1.605761D+00                             NZ=T
 IExCor=  402 DFT=T Ex+Corr=B3LYP ExCW=0 ScaHFX=  0.200000
 ScaDFX=  0.800000  0.720000  1.000000  0.810000 ScalE2=  1.000000  1.000000
 IRadAn=      0 IRanWt=     -1 IRanGd=            0 ICorTp=0 IEmpDi=  4
 NAtoms=    6 NActive=    6 NUniq=    6 SFac= 1.00D+00 NAtFMM=   60 NAOKFM=F Big=F
 Integral buffers will be    131072 words long.
 Raffenetti 2 integral format.
 Two-electron integral symmetry is turned off.
 Leave Link  301 at Sun Mar 15 18:45:34 2015, MaxMem=    33554432 cpu:         0.0
 (Enter /opt/g09_D01_em64t/g09/l302.exe)
 NPDir=0 NMtPBC=     1 NCelOv=     1 NCel=       1 NClECP=     1 NCelD=      1
         NCelK=      1 NCelE2=     1 NClLst=     1 CellRange=     0.0.
 One-electron integrals computed using PRISM.
 Entering OneElI...
 Calculate overlap and kinetic energy integrals
    NBasis =  50  MinDer = 0  MaxDer = 0
 Requested accuracy = 0.1000D-12
 PrsmSu:  NPrtUS=   1 ThrOK=F IAlg=1 NPAlg=1 LenDen=           0.
 Prism:   IPart=     0 DynPar=F LinDyn=F Incr=           2.
 PRISM was handed    33530313 working-precision words and   208 shell-pairs
 IPart=  0 NShTot=         208 NBatch=          34 AvBLen=         6.1
 PrSmSu:  NxtVal=              3.
 *** Overlap *** 
                1             2             3             4             5 
      1  0.100000D+01
      2  0.233690D+00  0.100000D+01
      3  0.000000D+00  0.000000D+00  0.100000D+01
      4  0.000000D+00  0.000000D+00  0.000000D+00  0.100000D+01
      5  0.000000D+00  0.000000D+00  0.000000D+00  0.000000D+00  0.100000D+01
      6  0.167280D+00  0.763641D+00  0.000000D+00  0.000000D+00  0.000000D+00
      7  0.000000D+00  0.000000D+00  0.501521D+00  0.000000D+00  0.000000D+00
      8  0.000000D+00  0.000000D+00  0.000000D+00  0.501521D+00  0.000000D+00
      9  0.000000D+00  0.000000D+00  0.000000D+00  0.000000D+00  0.501521D+00
     10  0.335315D-01  0.547066D+00  0.000000D+00  0.000000D+00  0.000000D+00
     11  0.335315D-01  0.547066D+00  0.000000D+00  0.000000D+00  0.000000D+00
     12  0.335315D-01  0.547066D+00  0.000000D+00  0.000000D+00  0.000000D+00
     13  0.000000D+00  0.000000D+00  0.000000D+00  0.000000D+00  0.000000D+00
     14  0.000000D+00  0.000000D+00  0.000000D+00  0.000000D+00  0.000000D+00
     15  0.000000D+00  0.000000D+00  0.000000D+00  0.000000D+00  0.000000D+00
     16  0.346526D-01  0.247247D+00  0.286266D+00  0.000000D+00  0.000000D+00
     17  0.688189D-01  0.379507D+00  0.147807D+00  0.000000D+00  0.000000D+00
     18 -0.570742D-01 -0.337432D+00 -0.382188D+00  0.000000D+00  0.000000D+00
     19  0.000000D+00  0.000000D+00  0.000000D+00  0.142271D+00  0.000000D+00
     20  0.000000D+00  0.000000D+00  0.000000D+00  0.000000D+00  0.142271D+00
     21  0.346526D-01  0.247247D+00 -0.955577D-01  0.269846D+00  0.000000D+00
     22  0.688189D-01  0.379507D+00 -0.493390D-01  0.139329D+00  0.000000D+00
     23  0.190518D-01  0.112637D+00  0.838321D-01  0.165026D+00  0.000000D+00
     24 -0.538005D-01 -0.318078D+00  0.165026D+00 -0.323749D+00  0.000000D+00
     25  0.000000D+00  0.000000D+00  0.000000D+00  0.000000D+00  0.142271D+00
     26  0.000000D+00  0.000000D+00  0.000000D+00  0.000000D+00  0.000000D+00
     27  0.000000D+00  0.000000D+00  0.000000D+00  0.000000D+00  0.000000D+00
     28  0.000000D+00  0.000000D+00  0.000000D+00  0.000000D+00  0.000000D+00
     29  0.000000D+00  0.000000D+00  0.000000D+00  0.000000D+00  0.000000D+00
     30  0.000000D+00  0.000000D+00  0.000000D+00  0.000000D+00  0.000000D+00
     31  0.107472D-04  0.309826D-03 -0.333100D-03  0.426974D-03  0.000000D+00
     32  0.403600D-04  0.947255D-03 -0.856983D-03  0.131828D-02  0.000000D+00
     33 -0.517342D-04 -0.121421D-02  0.131828D-02 -0.151833D-02  0.000000D+00
     34  0.000000D+00  0.000000D+00  0.000000D+00  0.000000D+00  0.171463D-03
     35  0.000000D+00  0.000000D+00 -0.116613D-05  0.175956D-05  0.000000D+00
     36  0.000000D+00  0.103132D-05 -0.220303D-05  0.255909D-05  0.000000D+00
     37  0.000000D+00  0.000000D+00  0.000000D+00  0.000000D+00  0.000000D+00
     38  0.000000D+00 -0.134200D-05  0.263739D-05 -0.349569D-05  0.000000D+00
     39  0.000000D+00  0.000000D+00  0.000000D+00  0.000000D+00  0.000000D+00
     40  0.000000D+00  0.000000D+00  0.000000D+00  0.000000D+00  0.000000D+00
     41  0.000000D+00  0.252067D-04 -0.244458D-04  0.608726D-04  0.000000D+00
     42  0.170467D-02  0.150246D-01 -0.586203D-02  0.145971D-01  0.000000D+00
     43  0.000000D+00  0.169524D-05 -0.163627D-05  0.547557D-05  0.000000D+00
     44  0.000000D+00 -0.422134D-05  0.547557D-05 -0.130721D-04  0.000000D+00
     45  0.000000D+00  0.000000D+00  0.000000D+00  0.000000D+00  0.000000D+00
     46  0.000000D+00  0.000000D+00  0.000000D+00  0.000000D+00  0.000000D+00
     47  0.730645D-05  0.126574D-03 -0.105576D-03  0.158024D-03  0.000000D+00
     48  0.000000D+00  0.000000D+00  0.000000D+00  0.000000D+00  0.000000D+00
     49  0.000000D+00  0.000000D+00  0.000000D+00  0.000000D+00  0.000000D+00
     50  0.000000D+00  0.000000D+00  0.000000D+00  0.000000D+00  0.000000D+00
                6             7             8             9            10 
      6  0.100000D+01
      7  0.000000D+00  0.100000D+01
      8  0.000000D+00  0.000000D+00  0.100000D+01
      9  0.000000D+00  0.000000D+00  0.000000D+00  0.100000D+01
     10  0.699015D+00  0.000000D+00  0.000000D+00  0.000000D+00  0.100000D+01
     11  0.699015D+00  0.000000D+00  0.000000D+00  0.000000D+00  0.333333D+00
     12  0.699015D+00  0.000000D+00  0.000000D+00  0.000000D+00  0.333333D+00
     13  0.000000D+00  0.000000D+00  0.000000D+00  0.000000D+00  0.000000D+00
     14  0.000000D+00  0.000000D+00  0.000000D+00  0.000000D+00  0.000000D+00
     15  0.000000D+00  0.000000D+00  0.000000D+00  0.000000D+00  0.000000D+00
     16  0.426176D+00  0.583430D+00  0.000000D+00  0.000000D+00  0.554681D+00
     17  0.682806D+00  0.481388D+00  0.000000D+00  0.000000D+00  0.470244D+00
     18 -0.260748D+00 -0.118102D+00  0.000000D+00  0.000000D+00 -0.406476D+00
     19  0.000000D+00  0.000000D+00  0.276608D+00  0.000000D+00  0.000000D+00
     20  0.000000D+00  0.000000D+00  0.000000D+00  0.276608D+00  0.000000D+00
     21  0.426176D+00 -0.194753D+00  0.549965D+00  0.000000D+00  0.209572D+00
     22  0.682806D+00 -0.160691D+00  0.453776D+00  0.000000D+00  0.407075D+00
     23  0.870395D-01  0.232626D+00  0.124200D+00  0.000000D+00 -0.712880D-01
     24 -0.245792D+00  0.124200D+00 -0.741208D-01  0.000000D+00 -0.230209D+00
     25  0.000000D+00  0.000000D+00  0.000000D+00  0.276608D+00  0.000000D+00
     26  0.107472D-04 -0.403600D-04  0.517342D-04  0.000000D+00  0.000000D+00
     27  0.309826D-03 -0.947255D-03  0.121421D-02  0.000000D+00  0.000000D+00
     28  0.333100D-03 -0.856983D-03  0.131828D-02  0.000000D+00  0.116613D-05
     29 -0.426974D-03  0.131828D-02 -0.151833D-02  0.000000D+00 -0.175956D-05
     30  0.000000D+00  0.000000D+00  0.000000D+00  0.171463D-03  0.000000D+00
     31  0.682267D-02 -0.132543D-01  0.169896D-01  0.000000D+00  0.117127D-02
     32  0.132543D-01 -0.189264D-01  0.330056D-01  0.000000D+00  0.261177D-02
     33 -0.169896D-01  0.330056D-01 -0.354845D-01  0.000000D+00 -0.436134D-02
     34  0.000000D+00  0.000000D+00  0.000000D+00  0.682267D-02  0.000000D+00
     35  0.117127D-02 -0.261177D-02  0.436134D-02  0.000000D+00  0.134610D-04
     36  0.166516D-02 -0.483719D-02  0.518687D-02  0.000000D+00  0.300621D-04
     37  0.403234D-03 -0.117137D-02  0.150148D-02  0.000000D+00  0.155177D-05
     38 -0.170517D-02  0.407568D-02 -0.566462D-02  0.000000D+00 -0.321997D-04
     39  0.000000D+00  0.000000D+00  0.000000D+00  0.684759D-03  0.000000D+00
     40  0.000000D+00  0.000000D+00  0.000000D+00 -0.877737D-03  0.000000D+00
     41  0.463014D-02 -0.657328D-02  0.163682D-01  0.000000D+00  0.122331D-03
     42  0.644376D-01 -0.481939D-01  0.120008D+00  0.000000D+00  0.207832D-01
     43  0.174071D-02 -0.105470D-02  0.696076D-02  0.000000D+00  0.103943D-04
     44 -0.433456D-02  0.696076D-02 -0.155924D-01  0.000000D+00 -0.498692D-04
     45  0.000000D+00  0.000000D+00  0.000000D+00  0.174067D-02  0.000000D+00
     46  0.645633D-05 -0.205283D-04  0.307263D-04  0.000000D+00  0.000000D+00
     47  0.198173D-02 -0.334570D-02  0.500778D-02  0.000000D+00  0.341934D-03
     48  0.222664D-05 -0.708504D-05  0.120812D-04  0.000000D+00  0.000000D+00
     49 -0.333279D-05  0.120812D-04 -0.170965D-04  0.000000D+00  0.000000D+00
     50  0.000000D+00  0.000000D+00  0.000000D+00  0.000000D+00  0.000000D+00
               11            12            13            14            15 
     11  0.100000D+01
     12  0.333333D+00  0.100000D+01
     13  0.000000D+00  0.000000D+00  0.100000D+01
     14  0.000000D+00  0.000000D+00  0.000000D+00  0.100000D+01
     15  0.000000D+00  0.000000D+00  0.000000D+00  0.000000D+00  0.100000D+01
     16  0.166296D+00  0.166296D+00  0.000000D+00  0.000000D+00  0.000000D+00
     17  0.399154D+00  0.399154D+00  0.000000D+00  0.000000D+00  0.000000D+00
     18 -0.166465D+00 -0.166465D+00  0.000000D+00  0.000000D+00  0.000000D+00
     19  0.000000D+00  0.000000D+00  0.396447D+00  0.000000D+00  0.000000D+00
     20  0.000000D+00  0.000000D+00  0.000000D+00  0.396447D+00  0.000000D+00
     21  0.511404D+00  0.166296D+00 -0.211673D+00  0.000000D+00  0.000000D+00
     22  0.462323D+00  0.399154D+00 -0.387447D-01  0.000000D+00  0.000000D+00
     23  0.262539D+00  0.555670D-01  0.246761D+00  0.000000D+00  0.000000D+00
     24 -0.309868D+00 -0.156916D+00  0.226150D+00  0.000000D+00  0.000000D+00
     25  0.000000D+00  0.000000D+00  0.000000D+00 -0.132337D+00  0.373707D+00
     26  0.000000D+00  0.000000D+00  0.000000D+00  0.000000D+00  0.000000D+00
     27  0.103132D-05  0.000000D+00 -0.134200D-05  0.000000D+00  0.000000D+00
     28  0.220303D-05  0.000000D+00 -0.263739D-05  0.000000D+00  0.000000D+00
     29 -0.255909D-05  0.000000D+00  0.349569D-05  0.000000D+00  0.000000D+00
     30  0.000000D+00  0.000000D+00  0.000000D+00  0.000000D+00  0.000000D+00
     31  0.166516D-02  0.403234D-03 -0.170517D-02  0.000000D+00  0.000000D+00
     32  0.483719D-02  0.117137D-02 -0.407568D-02  0.000000D+00  0.000000D+00
     33 -0.518687D-02 -0.150148D-02  0.566462D-02  0.000000D+00  0.000000D+00
     34  0.000000D+00  0.000000D+00  0.000000D+00 -0.684759D-03  0.877737D-03
     35  0.300621D-04  0.155177D-05 -0.321997D-04  0.000000D+00  0.000000D+00
     36  0.387003D-04  0.246773D-05 -0.549396D-04  0.000000D+00  0.000000D+00
     37  0.246773D-05  0.000000D+00 -0.316238D-05  0.000000D+00  0.000000D+00
     38 -0.549396D-04 -0.316238D-05  0.675979D-04  0.000000D+00  0.000000D+00
     39  0.000000D+00  0.000000D+00  0.000000D+00 -0.389101D-05  0.547741D-05
     40  0.000000D+00  0.000000D+00  0.000000D+00  0.547741D-05 -0.663890D-05
     41  0.553876D-03  0.393515D-04 -0.357888D-03  0.000000D+00  0.000000D+00
     42  0.388304D-01  0.173130D-01 -0.149669D-01  0.000000D+00  0.000000D+00
     43  0.105963D-03  0.350274D-05 -0.504960D-04  0.000000D+00  0.000000D+00
     44 -0.239874D-03 -0.872221D-05  0.169125D-03  0.000000D+00  0.000000D+00
     45  0.000000D+00  0.000000D+00  0.000000D+00 -0.834202D-05  0.207726D-04
     46  0.000000D+00  0.000000D+00  0.000000D+00  0.000000D+00  0.000000D+00
     47  0.556230D-03  0.169165D-03 -0.447905D-03  0.000000D+00  0.000000D+00
     48  0.000000D+00  0.000000D+00  0.000000D+00  0.000000D+00  0.000000D+00
     49  0.000000D+00  0.000000D+00  0.000000D+00  0.000000D+00  0.000000D+00
     50  0.000000D+00  0.000000D+00  0.000000D+00  0.000000D+00  0.000000D+00
               16            17            18            19            20 
     16  0.100000D+01
     17  0.658292D+00  0.100000D+01
     18  0.000000D+00  0.000000D+00  0.100000D+01
     19  0.000000D+00  0.000000D+00  0.000000D+00  0.100000D+01
     20  0.000000D+00  0.000000D+00  0.000000D+00  0.000000D+00  0.100000D+01
     21  0.425955D-01  0.207908D+00 -0.419367D-01  0.296379D-01  0.000000D+00
     22  0.207908D+00  0.492649D+00 -0.103042D+00  0.728225D-01  0.000000D+00
     23  0.419367D-01  0.103042D+00 -0.435092D-01  0.364012D-01  0.000000D+00
     24 -0.296379D-01 -0.728225D-01  0.364012D-01 -0.177285D-01  0.000000D+00
     25  0.000000D+00  0.000000D+00  0.000000D+00  0.000000D+00  0.799730D-02
     26  0.000000D+00  0.233652D-04  0.000000D+00  0.000000D+00  0.000000D+00
     27  0.000000D+00  0.350875D-03  0.000000D+00  0.000000D+00  0.000000D+00
     28  0.000000D+00  0.377578D-03  0.000000D+00  0.000000D+00  0.000000D+00
     29  0.000000D+00 -0.325865D-03  0.000000D+00  0.000000D+00  0.000000D+00
     30  0.000000D+00  0.000000D+00  0.000000D+00  0.000000D+00  0.000000D+00
     31  0.261495D-04  0.416388D-02 -0.140152D-04  0.120957D-04  0.000000D+00
     32  0.106347D-03  0.898543D-02 -0.600805D-04  0.560440D-04  0.000000D+00
     33 -0.917816D-04 -0.775478D-02  0.560440D-04 -0.435108D-04  0.000000D+00
     34  0.000000D+00  0.000000D+00  0.000000D+00  0.000000D+00  0.485735D-05
     35  0.000000D+00  0.121127D-02  0.000000D+00  0.000000D+00  0.000000D+00
     36  0.000000D+00  0.101801D-02  0.000000D+00  0.000000D+00  0.000000D+00
     37  0.000000D+00  0.453894D-03  0.000000D+00  0.000000D+00  0.000000D+00
     38  0.000000D+00 -0.113214D-02  0.000000D+00  0.000000D+00  0.000000D+00
     39  0.000000D+00  0.000000D+00  0.000000D+00  0.000000D+00  0.000000D+00
     40  0.000000D+00  0.000000D+00  0.000000D+00  0.000000D+00  0.000000D+00
     41  0.485169D-05  0.527084D-02  0.000000D+00  0.000000D+00  0.000000D+00
     42  0.527084D-02  0.508387D-01 -0.303057D-02  0.388464D-02  0.000000D+00
     43  0.000000D+00  0.303057D-02  0.000000D+00  0.000000D+00  0.000000D+00
     44  0.000000D+00 -0.388464D-02  0.000000D+00  0.000000D+00  0.000000D+00
     45  0.000000D+00  0.000000D+00  0.000000D+00  0.000000D+00  0.000000D+00
     46  0.000000D+00  0.193804D-04  0.000000D+00  0.000000D+00  0.000000D+00
     47  0.193804D-04  0.155271D-02 -0.113640D-04  0.119988D-04  0.000000D+00
     48  0.000000D+00  0.113640D-04  0.000000D+00  0.000000D+00  0.000000D+00
     49  0.000000D+00 -0.119988D-04  0.000000D+00  0.000000D+00  0.000000D+00
     50  0.000000D+00  0.000000D+00  0.000000D+00  0.000000D+00  0.000000D+00
               21            22            23            24            25 
     21  0.100000D+01
     22  0.658292D+00  0.100000D+01
     23  0.000000D+00  0.000000D+00  0.100000D+01
     24  0.000000D+00  0.000000D+00  0.000000D+00  0.100000D+01
     25  0.000000D+00  0.000000D+00  0.000000D+00  0.000000D+00  0.100000D+01
     26  0.266345D-05  0.545448D-02  0.000000D+00  0.000000D+00  0.000000D+00
     27  0.450064D-03  0.415301D-01 -0.133523D-03  0.131355D-03  0.000000D+00
     28  0.718704D-03  0.268001D-01 -0.255093D-03  0.277755D-03  0.000000D+00
     29 -0.707032D-03 -0.263649D-01  0.277755D-03 -0.245996D-03  0.000000D+00
     30  0.000000D+00  0.000000D+00  0.000000D+00  0.000000D+00  0.272484D-04
     31  0.190095D-01  0.135392D+00 -0.139549D-01  0.137282D-01  0.000000D+00
     32  0.441349D-01  0.164852D+00 -0.279109D-01  0.358901D-01  0.000000D+00
     33 -0.434180D-01 -0.162175D+00  0.358901D-01 -0.267355D-01  0.000000D+00
     34  0.000000D+00  0.000000D+00  0.000000D+00  0.000000D+00  0.857166D-02
     35  0.355326D-02  0.711306D-01 -0.184811D-02  0.228306D-02  0.000000D+00
     36  0.345611D-02  0.703355D-01 -0.225152D-02  0.174998D-02  0.000000D+00
     37  0.537988D-03  0.464534D-01 -0.171871D-03  0.169080D-03  0.000000D+00
     38 -0.513778D-02 -0.420479D-01  0.325885D-02 -0.319273D-02  0.000000D+00
     39  0.000000D+00  0.000000D+00  0.000000D+00  0.000000D+00  0.409323D-03
     40  0.000000D+00  0.000000D+00  0.000000D+00  0.000000D+00 -0.402676D-03
     41  0.188929D-01  0.150627D+00 -0.835959D-02  0.195351D-01  0.000000D+00
     42  0.150627D+00  0.403994D+00 -0.397366D-01  0.928585D-01  0.000000D+00
     43  0.835959D-02  0.397366D-01 -0.188814D-02  0.924179D-02  0.000000D+00
     44 -0.195351D-01 -0.928585D-01  0.924179D-02 -0.195300D-01  0.000000D+00
     45  0.000000D+00  0.000000D+00  0.000000D+00  0.000000D+00  0.206667D-02
     46  0.485169D-05  0.527084D-02  0.000000D+00  0.000000D+00  0.000000D+00
     47  0.527084D-02  0.508387D-01 -0.303057D-02  0.388464D-02  0.000000D+00
     48  0.000000D+00  0.303057D-02  0.000000D+00  0.000000D+00  0.000000D+00
     49  0.000000D+00 -0.388464D-02  0.000000D+00  0.000000D+00  0.000000D+00
     50  0.000000D+00  0.000000D+00  0.000000D+00  0.000000D+00  0.000000D+00
               26            27            28            29            30 
     26  0.100000D+01
     27  0.233690D+00  0.100000D+01
     28  0.000000D+00  0.000000D+00  0.100000D+01
     29  0.000000D+00  0.000000D+00  0.000000D+00  0.100000D+01
     30  0.000000D+00  0.000000D+00  0.000000D+00  0.000000D+00  0.100000D+01
     31  0.167280D+00  0.763641D+00  0.000000D+00  0.000000D+00  0.000000D+00
     32  0.000000D+00  0.000000D+00  0.501521D+00  0.000000D+00  0.000000D+00
     33  0.000000D+00  0.000000D+00  0.000000D+00  0.501521D+00  0.000000D+00
     34  0.000000D+00  0.000000D+00  0.000000D+00  0.000000D+00  0.501521D+00
     35  0.335315D-01  0.547066D+00  0.000000D+00  0.000000D+00  0.000000D+00
     36  0.335315D-01  0.547066D+00  0.000000D+00  0.000000D+00  0.000000D+00
     37  0.335315D-01  0.547066D+00  0.000000D+00  0.000000D+00  0.000000D+00
     38  0.000000D+00  0.000000D+00  0.000000D+00  0.000000D+00  0.000000D+00
     39  0.000000D+00  0.000000D+00  0.000000D+00  0.000000D+00  0.000000D+00
     40  0.000000D+00  0.000000D+00  0.000000D+00  0.000000D+00  0.000000D+00
     41  0.346526D-01  0.247247D+00  0.286266D+00  0.000000D+00  0.000000D+00
     42  0.688189D-01  0.379507D+00  0.147807D+00  0.000000D+00  0.000000D+00
     43 -0.570742D-01 -0.337432D+00 -0.382188D+00  0.000000D+00  0.000000D+00
     44  0.000000D+00  0.000000D+00  0.000000D+00  0.142271D+00  0.000000D+00
     45  0.000000D+00  0.000000D+00  0.000000D+00  0.000000D+00  0.142271D+00
     46  0.346526D-01  0.247247D+00 -0.955577D-01  0.269846D+00  0.000000D+00
     47  0.688189D-01  0.379507D+00 -0.493390D-01  0.139329D+00  0.000000D+00
     48  0.190518D-01  0.112637D+00  0.838321D-01  0.165026D+00  0.000000D+00
     49 -0.538005D-01 -0.318078D+00  0.165026D+00 -0.323749D+00  0.000000D+00
     50  0.000000D+00  0.000000D+00  0.000000D+00  0.000000D+00  0.142271D+00
               31            32            33            34            35 
     31  0.100000D+01
     32  0.000000D+00  0.100000D+01
     33  0.000000D+00  0.000000D+00  0.100000D+01
     34  0.000000D+00  0.000000D+00  0.000000D+00  0.100000D+01
     35  0.699015D+00  0.000000D+00  0.000000D+00  0.000000D+00  0.100000D+01
     36  0.699015D+00  0.000000D+00  0.000000D+00  0.000000D+00  0.333333D+00
     37  0.699015D+00  0.000000D+00  0.000000D+00  0.000000D+00  0.333333D+00
     38  0.000000D+00  0.000000D+00  0.000000D+00  0.000000D+00  0.000000D+00
     39  0.000000D+00  0.000000D+00  0.000000D+00  0.000000D+00  0.000000D+00
     40  0.000000D+00  0.000000D+00  0.000000D+00  0.000000D+00  0.000000D+00
     41  0.426176D+00  0.583430D+00  0.000000D+00  0.000000D+00  0.554681D+00
     42  0.682806D+00  0.481388D+00  0.000000D+00  0.000000D+00  0.470244D+00
     43 -0.260748D+00 -0.118102D+00  0.000000D+00  0.000000D+00 -0.406476D+00
     44  0.000000D+00  0.000000D+00  0.276608D+00  0.000000D+00  0.000000D+00
     45  0.000000D+00  0.000000D+00  0.000000D+00  0.276608D+00  0.000000D+00
     46  0.426176D+00 -0.194753D+00  0.549965D+00  0.000000D+00  0.209572D+00
     47  0.682806D+00 -0.160691D+00  0.453776D+00  0.000000D+00  0.407075D+00
     48  0.870395D-01  0.232626D+00  0.124200D+00  0.000000D+00 -0.712880D-01
     49 -0.245792D+00  0.124200D+00 -0.741208D-01  0.000000D+00 -0.230209D+00
     50  0.000000D+00  0.000000D+00  0.000000D+00  0.276608D+00  0.000000D+00
               36            37            38            39            40 
     36  0.100000D+01
     37  0.333333D+00  0.100000D+01
     38  0.000000D+00  0.000000D+00  0.100000D+01
     39  0.000000D+00  0.000000D+00  0.000000D+00  0.100000D+01
     40  0.000000D+00  0.000000D+00  0.000000D+00  0.000000D+00  0.100000D+01
     41  0.166296D+00  0.166296D+00  0.000000D+00  0.000000D+00  0.000000D+00
     42  0.399154D+00  0.399154D+00  0.000000D+00  0.000000D+00  0.000000D+00
     43 -0.166465D+00 -0.166465D+00  0.000000D+00  0.000000D+00  0.000000D+00
     44  0.000000D+00  0.000000D+00  0.396447D+00  0.000000D+00  0.000000D+00
     45  0.000000D+00  0.000000D+00  0.000000D+00  0.396447D+00  0.000000D+00
     46  0.511404D+00  0.166296D+00 -0.211673D+00  0.000000D+00  0.000000D+00
     47  0.462323D+00  0.399154D+00 -0.387447D-01  0.000000D+00  0.000000D+00
     48  0.262539D+00  0.555670D-01  0.246761D+00  0.000000D+00  0.000000D+00
     49 -0.309868D+00 -0.156916D+00  0.226150D+00  0.000000D+00  0.000000D+00
     50  0.000000D+00  0.000000D+00  0.000000D+00 -0.132337D+00  0.373707D+00
               41            42            43            44            45 
     41  0.100000D+01
     42  0.658292D+00  0.100000D+01
     43  0.000000D+00  0.000000D+00  0.100000D+01
     44  0.000000D+00  0.000000D+00  0.000000D+00  0.100000D+01
     45  0.000000D+00  0.000000D+00  0.000000D+00  0.000000D+00  0.100000D+01
     46  0.425955D-01  0.207908D+00 -0.419367D-01  0.296379D-01  0.000000D+00
     47  0.207908D+00  0.492649D+00 -0.103042D+00  0.728225D-01  0.000000D+00
     48  0.419367D-01  0.103042D+00 -0.435092D-01  0.364012D-01  0.000000D+00
     49 -0.296379D-01 -0.728225D-01  0.364012D-01 -0.177285D-01  0.000000D+00
     50  0.000000D+00  0.000000D+00  0.000000D+00  0.000000D+00  0.799730D-02
               46            47            48            49            50 
     46  0.100000D+01
     47  0.658292D+00  0.100000D+01
     48  0.000000D+00  0.000000D+00  0.100000D+01
     49  0.000000D+00  0.000000D+00  0.000000D+00  0.100000D+01
     50  0.000000D+00  0.000000D+00  0.000000D+00  0.000000D+00  0.100000D+01
 *** Kinetic Energy *** 
                1             2             3             4             5 
      1  0.295401D+02
      2 -0.218540D+01  0.171121D+01
      3  0.000000D+00  0.000000D+00  0.425188D+01
      4  0.000000D+00  0.000000D+00  0.000000D+00  0.425188D+01
      5  0.000000D+00  0.000000D+00  0.000000D+00  0.000000D+00  0.425188D+01
      6  0.131283D+00  0.480048D+00  0.000000D+00  0.000000D+00  0.000000D+00
      7  0.000000D+00  0.000000D+00  0.547243D+00  0.000000D+00  0.000000D+00
      8  0.000000D+00  0.000000D+00  0.000000D+00  0.547243D+00  0.000000D+00
      9  0.000000D+00  0.000000D+00  0.000000D+00  0.000000D+00  0.547243D+00
     10 -0.465828D+00  0.249764D+00  0.000000D+00  0.000000D+00  0.000000D+00
     11 -0.465828D+00  0.249764D+00  0.000000D+00  0.000000D+00  0.000000D+00
     12 -0.465828D+00  0.249764D+00  0.000000D+00  0.000000D+00  0.000000D+00
     13  0.000000D+00  0.000000D+00  0.000000D+00  0.000000D+00  0.000000D+00
     14  0.000000D+00  0.000000D+00  0.000000D+00  0.000000D+00  0.000000D+00
     15  0.000000D+00  0.000000D+00  0.000000D+00  0.000000D+00  0.000000D+00
     16 -0.222688D-01  0.195359D-01  0.222208D+00  0.000000D+00  0.000000D+00
     17  0.213242D-01  0.109555D+00  0.847564D-01  0.000000D+00  0.000000D+00
     18  0.785073D-01 -0.310778D+00 -0.826207D+00  0.000000D+00  0.000000D+00
     19  0.000000D+00  0.000000D+00  0.000000D+00  0.958213D-01  0.000000D+00
     20  0.000000D+00  0.000000D+00  0.000000D+00  0.000000D+00  0.958213D-01
     21 -0.222688D-01  0.195359D-01 -0.741744D-01  0.209462D+00  0.000000D+00
     22  0.213242D-01  0.109555D+00 -0.282923D-01  0.798949D-01  0.000000D+00
     23 -0.262063D-01  0.103740D+00 -0.691758D-02  0.290126D+00  0.000000D+00
     24  0.740042D-01 -0.292953D+00  0.290126D+00 -0.723468D+00  0.000000D+00
     25  0.000000D+00  0.000000D+00  0.000000D+00  0.000000D+00  0.958213D-01
     26  0.000000D+00  0.000000D+00  0.000000D+00  0.000000D+00  0.000000D+00
     27  0.000000D+00  0.000000D+00  0.000000D+00  0.000000D+00  0.000000D+00
     28  0.000000D+00  0.000000D+00  0.000000D+00 -0.109241D-05  0.000000D+00
     29  0.000000D+00  0.000000D+00 -0.109241D-05  0.133618D-05  0.000000D+00
     30  0.000000D+00  0.000000D+00  0.000000D+00  0.000000D+00  0.000000D+00
     31 -0.456813D-04 -0.835202D-03  0.776897D-03 -0.995841D-03  0.000000D+00
     32 -0.150571D-03 -0.214692D-02  0.156395D-02 -0.251731D-02  0.000000D+00
     33  0.193004D-03  0.275197D-02 -0.251731D-02  0.282683D-02  0.000000D+00
     34  0.000000D+00  0.000000D+00  0.000000D+00  0.000000D+00 -0.399908D-03
     35  0.000000D+00 -0.759253D-05  0.125919D-04 -0.192242D-04  0.000000D+00
     36  0.000000D+00 -0.121176D-04  0.239254D-04 -0.275843D-04  0.000000D+00
     37  0.000000D+00  0.000000D+00  0.111420D-05 -0.142820D-05  0.000000D+00
     38  0.000000D+00  0.156227D-04 -0.281530D-04  0.374267D-04  0.000000D+00
     39  0.000000D+00  0.000000D+00  0.000000D+00  0.000000D+00 -0.208337D-05
     40  0.000000D+00  0.000000D+00  0.000000D+00  0.000000D+00  0.267051D-05
     41  0.000000D+00 -0.177050D-03  0.153446D-03 -0.382097D-03  0.000000D+00
     42 -0.146575D-02 -0.908653D-02  0.205104D-02 -0.510731D-02  0.000000D+00
     43  0.000000D+00 -0.206937D-04  0.176593D-04 -0.610796D-04  0.000000D+00
     44  0.000000D+00  0.515296D-04 -0.610796D-04  0.145225D-03  0.000000D+00
     45  0.000000D+00  0.000000D+00  0.000000D+00  0.000000D+00 -0.686957D-05
     46  0.000000D+00  0.000000D+00  0.000000D+00  0.000000D+00  0.000000D+00
     47 -0.188672D-04 -0.244965D-03  0.178944D-03 -0.267839D-03  0.000000D+00
     48  0.000000D+00  0.000000D+00  0.000000D+00  0.000000D+00  0.000000D+00
     49  0.000000D+00  0.000000D+00  0.000000D+00  0.000000D+00  0.000000D+00
     50  0.000000D+00  0.000000D+00  0.000000D+00  0.000000D+00  0.000000D+00
                6             7             8             9            10 
      6  0.405009D+00
      7  0.000000D+00  0.675015D+00
      8  0.000000D+00  0.000000D+00  0.675015D+00
      9  0.000000D+00  0.000000D+00  0.000000D+00  0.675015D+00
     10  0.328083D+00  0.000000D+00  0.000000D+00  0.000000D+00  0.173333D+01
     11  0.328083D+00  0.000000D+00  0.000000D+00  0.000000D+00 -0.133333D+00
     12  0.328083D+00  0.000000D+00  0.000000D+00  0.000000D+00 -0.133333D+00
     13  0.000000D+00  0.000000D+00  0.000000D+00  0.000000D+00  0.000000D+00
     14  0.000000D+00  0.000000D+00  0.000000D+00  0.000000D+00  0.000000D+00
     15  0.000000D+00  0.000000D+00  0.000000D+00  0.000000D+00  0.000000D+00
     16  0.141953D+00  0.425097D+00  0.000000D+00  0.000000D+00  0.570989D+00
     17  0.161007D+00  0.210722D+00  0.000000D+00  0.000000D+00  0.150153D+00
     18 -0.201977D+00 -0.262623D+00  0.000000D+00  0.000000D+00 -0.102405D+01
     19  0.000000D+00  0.000000D+00  0.214262D+00  0.000000D+00  0.000000D+00
     20  0.000000D+00  0.000000D+00  0.000000D+00  0.214262D+00  0.000000D+00
     21  0.141953D+00 -0.141900D+00  0.400714D+00  0.000000D+00 -0.113986D-01
     22  0.161007D+00 -0.703405D-01  0.198635D+00  0.000000D+00  0.982944D-01
     23  0.674213D-01  0.161124D+00  0.150057D+00  0.000000D+00 -0.228672D+00
     24 -0.190392D+00  0.150057D+00 -0.209485D+00  0.000000D+00 -0.143988D+00
     25  0.000000D+00  0.000000D+00  0.000000D+00  0.214262D+00  0.000000D+00
     26 -0.456813D-04  0.150571D-03 -0.193004D-03  0.000000D+00  0.000000D+00
     27 -0.835202D-03  0.214692D-02 -0.275197D-02  0.000000D+00 -0.759253D-05
     28 -0.776897D-03  0.156395D-02 -0.251731D-02  0.000000D+00 -0.125919D-04
     29  0.995841D-03 -0.251731D-02  0.282683D-02  0.000000D+00  0.192242D-04
     30  0.000000D+00  0.000000D+00  0.000000D+00 -0.399908D-03  0.000000D+00
     31 -0.642454D-02  0.890214D-02 -0.114109D-01  0.000000D+00 -0.225222D-02
     32 -0.890214D-02  0.575933D-02 -0.132562D-01  0.000000D+00 -0.390534D-02
     33  0.114109D-01 -0.132562D-01  0.124096D-01  0.000000D+00  0.662553D-02
     34  0.000000D+00  0.000000D+00  0.000000D+00 -0.458238D-02  0.000000D+00
     35 -0.225222D-02  0.390534D-02 -0.662553D-02  0.000000D+00 -0.103205D-03
     36 -0.304145D-02  0.688225D-02 -0.720220D-02  0.000000D+00 -0.232767D-03
     37 -0.102492D-02  0.250439D-02 -0.321017D-02  0.000000D+00 -0.155471D-04
     38  0.272484D-02 -0.451296D-02  0.648845D-02  0.000000D+00  0.241515D-03
     39  0.000000D+00  0.000000D+00  0.000000D+00 -0.109424D-02  0.000000D+00
     40  0.000000D+00  0.000000D+00  0.000000D+00  0.140261D-02  0.000000D+00
     41 -0.643341D-02  0.667468D-02 -0.166207D-01  0.000000D+00 -0.599524D-03
     42 -0.155212D-01  0.187644D-02 -0.467253D-02  0.000000D+00 -0.106761D-01
     43 -0.247693D-02  0.288748D-03 -0.688669D-02  0.000000D+00 -0.776340D-04
     44  0.616784D-02 -0.688669D-02  0.146718D-01  0.000000D+00  0.390005D-03
     45  0.000000D+00  0.000000D+00  0.000000D+00 -0.247687D-02  0.000000D+00
     46 -0.248813D-04  0.713790D-04 -0.106839D-03  0.000000D+00  0.000000D+00
     47 -0.187067D-02  0.248258D-02 -0.371588D-02  0.000000D+00 -0.532112D-03
     48 -0.103857D-04  0.295471D-04 -0.511120D-04  0.000000D+00  0.000000D+00
     49  0.155451D-04 -0.511120D-04  0.719026D-04  0.000000D+00  0.000000D+00
     50  0.000000D+00  0.000000D+00  0.000000D+00 -0.460083D-05  0.000000D+00
               11            12            13            14            15 
     11  0.173333D+01
     12 -0.133333D+00  0.173333D+01
     13  0.000000D+00  0.000000D+00  0.280000D+01
     14  0.000000D+00  0.000000D+00  0.000000D+00  0.280000D+01
     15  0.000000D+00  0.000000D+00  0.000000D+00  0.000000D+00  0.280000D+01
     16 -0.844300D-01 -0.844300D-01  0.000000D+00  0.000000D+00  0.000000D+00
     17  0.917912D-01  0.917912D-01  0.000000D+00  0.000000D+00  0.000000D+00
     18  0.615709D-01  0.615709D-01  0.000000D+00  0.000000D+00  0.000000D+00
     19  0.000000D+00  0.000000D+00  0.725548D+00  0.000000D+00  0.000000D+00
     20  0.000000D+00  0.000000D+00  0.000000D+00  0.725548D+00  0.000000D+00
     21  0.497957D+00 -0.844300D-01 -0.357208D+00  0.000000D+00  0.000000D+00
     22  0.143650D+00  0.917912D-01 -0.318079D-01  0.000000D+00  0.000000D+00
     23  0.549954D+00 -0.205528D-01  0.334010D+00  0.000000D+00  0.000000D+00
     24 -0.763287D+00  0.580393D-01  0.745954D+00  0.000000D+00  0.000000D+00
     25  0.000000D+00  0.000000D+00  0.000000D+00 -0.242193D+00  0.683932D+00
     26  0.000000D+00  0.000000D+00  0.000000D+00  0.000000D+00  0.000000D+00
     27 -0.121176D-04  0.000000D+00  0.156227D-04  0.000000D+00  0.000000D+00
     28 -0.239254D-04 -0.111420D-05  0.281530D-04  0.000000D+00  0.000000D+00
     29  0.275843D-04  0.142820D-05 -0.374267D-04  0.000000D+00  0.000000D+00
     30  0.000000D+00  0.000000D+00  0.000000D+00  0.208337D-05 -0.267051D-05
     31 -0.304145D-02 -0.102492D-02  0.272484D-02  0.000000D+00  0.000000D+00
     32 -0.688225D-02 -0.250439D-02  0.451296D-02  0.000000D+00  0.000000D+00
     33  0.720220D-02  0.321017D-02 -0.648845D-02  0.000000D+00  0.000000D+00
     34  0.000000D+00  0.000000D+00  0.000000D+00  0.109424D-02 -0.140261D-02
     35 -0.232767D-03 -0.155471D-04  0.241515D-03  0.000000D+00  0.000000D+00
     36 -0.291996D-03 -0.245437D-04  0.410290D-03  0.000000D+00  0.000000D+00
     37 -0.245437D-04 -0.385530D-05  0.310608D-04  0.000000D+00  0.000000D+00
     38  0.410290D-03  0.310608D-04 -0.493286D-03  0.000000D+00  0.000000D+00
     39  0.000000D+00  0.000000D+00  0.000000D+00  0.316861D-04 -0.450351D-04
     40  0.000000D+00  0.000000D+00  0.000000D+00 -0.450351D-04  0.542792D-04
     41 -0.243875D-02 -0.245871D-03  0.152530D-02  0.000000D+00  0.000000D+00
     42 -0.110618D-01 -0.106019D-01  0.319873D-03  0.000000D+00  0.000000D+00
     43 -0.781702D-03 -0.364288D-04  0.348054D-03  0.000000D+00  0.000000D+00
     44  0.174984D-02  0.907117D-04 -0.122245D-02  0.000000D+00  0.000000D+00
     45  0.000000D+00  0.000000D+00  0.000000D+00  0.684053D-04 -0.170337D-03
     46  0.000000D+00  0.000000D+00  0.000000D+00  0.000000D+00  0.000000D+00
     47 -0.802938D-03 -0.313766D-03  0.566062D-03  0.000000D+00  0.000000D+00
     48  0.000000D+00  0.000000D+00  0.000000D+00  0.000000D+00  0.000000D+00
     49  0.000000D+00  0.000000D+00  0.000000D+00  0.000000D+00  0.000000D+00
     50  0.000000D+00  0.000000D+00  0.000000D+00  0.000000D+00  0.000000D+00
               16            17            18            19            20 
     16  0.139568D+01
     17  0.259735D+00  0.241917D+00
     18  0.000000D+00  0.000000D+00  0.275000D+01
     19  0.000000D+00  0.000000D+00  0.000000D+00  0.275000D+01
     20  0.000000D+00  0.000000D+00  0.000000D+00  0.000000D+00  0.275000D+01
     21 -0.422876D-01  0.188643D-01  0.401240D-01 -0.283568D-01  0.000000D+00
     22  0.188643D-01  0.629304D-01 -0.366721D-01  0.259173D-01  0.000000D+00
     23 -0.401240D-01  0.366721D-01  0.547924D-01 -0.532010D-01  0.000000D+00
     24  0.283568D-01 -0.259173D-01 -0.532010D-01  0.171135D-01  0.000000D+00
     25  0.000000D+00  0.000000D+00  0.000000D+00  0.000000D+00 -0.204852D-01
     26  0.000000D+00 -0.517596D-04  0.000000D+00  0.000000D+00  0.000000D+00
     27  0.000000D+00 -0.579246D-03  0.000000D+00  0.000000D+00  0.000000D+00
     28  0.000000D+00 -0.532098D-03  0.000000D+00  0.000000D+00  0.000000D+00
     29  0.000000D+00  0.459222D-03  0.000000D+00  0.000000D+00  0.000000D+00
     30  0.000000D+00  0.000000D+00  0.000000D+00  0.000000D+00  0.000000D+00
     31 -0.870123D-04 -0.330623D-02  0.556835D-04 -0.480570D-04  0.000000D+00
     32 -0.313904D-03 -0.532018D-02  0.210549D-03 -0.198367D-03  0.000000D+00
     33  0.270912D-03  0.459153D-02 -0.198367D-03  0.151900D-03  0.000000D+00
     34  0.000000D+00  0.000000D+00  0.000000D+00  0.000000D+00 -0.192987D-04
     35  0.000000D+00 -0.147813D-02  0.000000D+00  0.000000D+00  0.000000D+00
     36  0.000000D+00 -0.128509D-02  0.000000D+00  0.000000D+00  0.000000D+00
     37  0.000000D+00 -0.721623D-03  0.000000D+00  0.000000D+00  0.000000D+00
     38  0.000000D+00  0.113084D-02  0.000000D+00  0.000000D+00  0.000000D+00
     39  0.000000D+00  0.000000D+00  0.000000D+00  0.000000D+00  0.000000D+00
     40  0.000000D+00  0.000000D+00  0.000000D+00  0.000000D+00  0.000000D+00
     41 -0.320769D-04 -0.453745D-02  0.721041D-05 -0.924244D-05  0.000000D+00
     42 -0.453745D-02 -0.121273D-01  0.229871D-02 -0.294652D-02  0.000000D+00
     43 -0.721041D-05 -0.229871D-02  0.000000D+00  0.000000D+00  0.000000D+00
     44  0.924244D-05  0.294652D-02  0.000000D+00  0.000000D+00  0.000000D+00
     45  0.000000D+00  0.000000D+00  0.000000D+00  0.000000D+00  0.000000D+00
     46  0.000000D+00 -0.444574D-04  0.000000D+00  0.000000D+00  0.000000D+00
     47 -0.444574D-04 -0.124401D-02  0.280728D-04 -0.296408D-04  0.000000D+00
     48  0.000000D+00 -0.280728D-04  0.000000D+00  0.000000D+00  0.000000D+00
     49  0.000000D+00  0.296408D-04  0.000000D+00  0.000000D+00  0.000000D+00
     50  0.000000D+00  0.000000D+00  0.000000D+00  0.000000D+00  0.000000D+00
               21            22            23            24            25 
     21  0.139568D+01
     22  0.259735D+00  0.241917D+00
     23  0.000000D+00  0.000000D+00  0.275000D+01
     24  0.000000D+00  0.000000D+00  0.000000D+00  0.275000D+01
     25  0.000000D+00  0.000000D+00  0.000000D+00  0.000000D+00  0.275000D+01
     26 -0.308726D-04 -0.268415D-02  0.000000D+00  0.000000D+00  0.000000D+00
     27 -0.213748D-02 -0.134004D-01  0.108270D-02 -0.106512D-02  0.000000D+00
     28 -0.290935D-02 -0.162845D-02  0.177634D-02 -0.196529D-02  0.000000D+00
     29  0.286210D-02  0.160201D-02 -0.196529D-02  0.171198D-02  0.000000D+00
     30  0.000000D+00  0.000000D+00  0.000000D+00  0.000000D+00 -0.221396D-03
     31 -0.163473D-01 -0.123123D-01  0.102111D-01 -0.100453D-01  0.000000D+00
     32 -0.213503D-01  0.182982D-01  0.460488D-02 -0.107003D-01  0.000000D+00
     33  0.210035D-01 -0.180010D-01 -0.107003D-01  0.425444D-02  0.000000D+00
     34  0.000000D+00  0.000000D+00  0.000000D+00  0.000000D+00 -0.627211D-02
     35 -0.968345D-02 -0.101281D-01  0.771160D-02 -0.993221D-02  0.000000D+00
     36 -0.944762D-02 -0.103218D-01  0.981102D-02 -0.730582D-02  0.000000D+00
     37 -0.236379D-02 -0.161388D-01  0.124524D-02 -0.122501D-02  0.000000D+00
     38  0.124721D-01 -0.102418D-01 -0.130497D-01  0.127713D-01  0.000000D+00
     39  0.000000D+00  0.000000D+00  0.000000D+00  0.000000D+00 -0.206511D-02
     40  0.000000D+00  0.000000D+00  0.000000D+00  0.000000D+00  0.203157D-02
     41 -0.278055D-01  0.959955D-03  0.143205D-01 -0.334648D-01  0.000000D+00
     42  0.959955D-03  0.386792D-01 -0.102738D-01  0.240083D-01  0.000000D+00
     43 -0.143205D-01  0.102738D-01  0.329668D-02 -0.272633D-01  0.000000D+00
     44  0.334648D-01 -0.240083D-01 -0.272633D-01  0.553403D-01  0.000000D+00
     45  0.000000D+00  0.000000D+00  0.000000D+00  0.000000D+00 -0.837000D-02
     46 -0.320769D-04 -0.453745D-02  0.721041D-05 -0.924244D-05  0.000000D+00
     47 -0.453745D-02 -0.121273D-01  0.229871D-02 -0.294652D-02  0.000000D+00
     48 -0.721041D-05 -0.229871D-02  0.000000D+00  0.000000D+00  0.000000D+00
     49  0.924244D-05  0.294652D-02  0.000000D+00  0.000000D+00  0.000000D+00
     50  0.000000D+00  0.000000D+00  0.000000D+00  0.000000D+00  0.000000D+00
               26            27            28            29            30 
     26  0.295401D+02
     27 -0.218540D+01  0.171121D+01
     28  0.000000D+00  0.000000D+00  0.425188D+01
     29  0.000000D+00  0.000000D+00  0.000000D+00  0.425188D+01
     30  0.000000D+00  0.000000D+00  0.000000D+00  0.000000D+00  0.425188D+01
     31  0.131283D+00  0.480048D+00  0.000000D+00  0.000000D+00  0.000000D+00
     32  0.000000D+00  0.000000D+00  0.547243D+00  0.000000D+00  0.000000D+00
     33  0.000000D+00  0.000000D+00  0.000000D+00  0.547243D+00  0.000000D+00
     34  0.000000D+00  0.000000D+00  0.000000D+00  0.000000D+00  0.547243D+00
     35 -0.465828D+00  0.249764D+00  0.000000D+00  0.000000D+00  0.000000D+00
     36 -0.465828D+00  0.249764D+00  0.000000D+00  0.000000D+00  0.000000D+00
     37 -0.465828D+00  0.249764D+00  0.000000D+00  0.000000D+00  0.000000D+00
     38  0.000000D+00  0.000000D+00  0.000000D+00  0.000000D+00  0.000000D+00
     39  0.000000D+00  0.000000D+00  0.000000D+00  0.000000D+00  0.000000D+00
     40  0.000000D+00  0.000000D+00  0.000000D+00  0.000000D+00  0.000000D+00
     41 -0.222688D-01  0.195359D-01  0.222208D+00  0.000000D+00  0.000000D+00
     42  0.213242D-01  0.109555D+00  0.847564D-01  0.000000D+00  0.000000D+00
     43  0.785073D-01 -0.310778D+00 -0.826207D+00  0.000000D+00  0.000000D+00
     44  0.000000D+00  0.000000D+00  0.000000D+00  0.958213D-01  0.000000D+00
     45  0.000000D+00  0.000000D+00  0.000000D+00  0.000000D+00  0.958213D-01
     46 -0.222688D-01  0.195359D-01 -0.741744D-01  0.209462D+00  0.000000D+00
     47  0.213242D-01  0.109555D+00 -0.282923D-01  0.798949D-01  0.000000D+00
     48 -0.262063D-01  0.103740D+00 -0.691758D-02  0.290126D+00  0.000000D+00
     49  0.740042D-01 -0.292953D+00  0.290126D+00 -0.723468D+00  0.000000D+00
     50  0.000000D+00  0.000000D+00  0.000000D+00  0.000000D+00  0.958213D-01
               31            32            33            34            35 
     31  0.405009D+00
     32  0.000000D+00  0.675015D+00
     33  0.000000D+00  0.000000D+00  0.675015D+00
     34  0.000000D+00  0.000000D+00  0.000000D+00  0.675015D+00
     35  0.328083D+00  0.000000D+00  0.000000D+00  0.000000D+00  0.173333D+01
     36  0.328083D+00  0.000000D+00  0.000000D+00  0.000000D+00 -0.133333D+00
     37  0.328083D+00  0.000000D+00  0.000000D+00  0.000000D+00 -0.133333D+00
     38  0.000000D+00  0.000000D+00  0.000000D+00  0.000000D+00  0.000000D+00
     39  0.000000D+00  0.000000D+00  0.000000D+00  0.000000D+00  0.000000D+00
     40  0.000000D+00  0.000000D+00  0.000000D+00  0.000000D+00  0.000000D+00
     41  0.141953D+00  0.425097D+00  0.000000D+00  0.000000D+00  0.570989D+00
     42  0.161007D+00  0.210722D+00  0.000000D+00  0.000000D+00  0.150153D+00
     43 -0.201977D+00 -0.262623D+00  0.000000D+00  0.000000D+00 -0.102405D+01
     44  0.000000D+00  0.000000D+00  0.214262D+00  0.000000D+00  0.000000D+00
     45  0.000000D+00  0.000000D+00  0.000000D+00  0.214262D+00  0.000000D+00
     46  0.141953D+00 -0.141900D+00  0.400714D+00  0.000000D+00 -0.113986D-01
     47  0.161007D+00 -0.703405D-01  0.198635D+00  0.000000D+00  0.982944D-01
     48  0.674213D-01  0.161124D+00  0.150057D+00  0.000000D+00 -0.228672D+00
     49 -0.190392D+00  0.150057D+00 -0.209485D+00  0.000000D+00 -0.143988D+00
     50  0.000000D+00  0.000000D+00  0.000000D+00  0.214262D+00  0.000000D+00
               36            37            38            39            40 
     36  0.173333D+01
     37 -0.133333D+00  0.173333D+01
     38  0.000000D+00  0.000000D+00  0.280000D+01
     39  0.000000D+00  0.000000D+00  0.000000D+00  0.280000D+01
     40  0.000000D+00  0.000000D+00  0.000000D+00  0.000000D+00  0.280000D+01
     41 -0.844300D-01 -0.844300D-01  0.000000D+00  0.000000D+00  0.000000D+00
     42  0.917912D-01  0.917912D-01  0.000000D+00  0.000000D+00  0.000000D+00
     43  0.615709D-01  0.615709D-01  0.000000D+00  0.000000D+00  0.000000D+00
     44  0.000000D+00  0.000000D+00  0.725548D+00  0.000000D+00  0.000000D+00
     45  0.000000D+00  0.000000D+00  0.000000D+00  0.725548D+00  0.000000D+00
     46  0.497957D+00 -0.844300D-01 -0.357208D+00  0.000000D+00  0.000000D+00
     47  0.143650D+00  0.917912D-01 -0.318079D-01  0.000000D+00  0.000000D+00
     48  0.549954D+00 -0.205528D-01  0.334010D+00  0.000000D+00  0.000000D+00
     49 -0.763287D+00  0.580393D-01  0.745954D+00  0.000000D+00  0.000000D+00
     50  0.000000D+00  0.000000D+00  0.000000D+00 -0.242193D+00  0.683932D+00
               41            42            43            44            45 
     41  0.139568D+01
     42  0.259735D+00  0.241917D+00
     43  0.000000D+00  0.000000D+00  0.275000D+01
     44  0.000000D+00  0.000000D+00  0.000000D+00  0.275000D+01
     45  0.000000D+00  0.000000D+00  0.000000D+00  0.000000D+00  0.275000D+01
     46 -0.422876D-01  0.188643D-01  0.401240D-01 -0.283568D-01  0.000000D+00
     47  0.188643D-01  0.629304D-01 -0.366721D-01  0.259173D-01  0.000000D+00
     48 -0.401240D-01  0.366721D-01  0.547924D-01 -0.532010D-01  0.000000D+00
     49  0.283568D-01 -0.259173D-01 -0.532010D-01  0.171135D-01  0.000000D+00
     50  0.000000D+00  0.000000D+00  0.000000D+00  0.000000D+00 -0.204852D-01
               46            47            48            49            50 
     46  0.139568D+01
     47  0.259735D+00  0.241917D+00
     48  0.000000D+00  0.000000D+00  0.275000D+01
     49  0.000000D+00  0.000000D+00  0.000000D+00  0.275000D+01
     50  0.000000D+00  0.000000D+00  0.000000D+00  0.000000D+00  0.275000D+01
 Entering OneElI...
 Calculate potential energy integrals
    NBasis =  50  MinDer = 0  MaxDer = 0
 Requested accuracy = 0.1000D-12
 PrsmSu:  NPrtUS=   1 ThrOK=F IAlg=1 NPAlg=1 LenDen=           0.
 Prism:   IPart=     0 DynPar=F LinDyn=F Incr=          12.
 PRISM was handed    33530939 working-precision words and   204 shell-pairs
 IPart=  0 NShTot=        1224 NBatch=         204 AvBLen=         6.0
 PrSmSu:  NxtVal=             13.
 ***** Potential Energy ***** 
                1             2             3             4             5 
      1  0.642214D+02
      2  0.556419D+01  0.132710D+02
      3  0.335678D-02  0.225767D-01  0.144136D+02
      4  0.367573D-01  0.250329D+00 -0.377238D-01  0.144022D+02
      5  0.000000D+00  0.000000D+00  0.000000D+00  0.000000D+00  0.143106D+02
      6  0.577678D+01  0.911920D+01  0.190881D-01  0.239453D+00  0.000000D+00
      7  0.462559D-03  0.126320D-01  0.517907D+01 -0.356681D-01  0.000000D+00
      8  0.506509D-02  0.162746D+00 -0.356681D-01  0.516952D+01  0.000000D+00
      9  0.000000D+00  0.000000D+00  0.000000D+00  0.000000D+00  0.508417D+01
     10  0.690317D+00  0.584053D+01  0.701348D-01  0.106680D+00  0.000000D+00
     11  0.690168D+00  0.583067D+01 -0.237141D-01  0.356561D+00  0.000000D+00
     12  0.688992D+00  0.575027D+01  0.386669D-03  0.972616D-01  0.000000D+00
     13 -0.837933D-03 -0.574985D-01  0.184776D+00 -0.410740D-01  0.000000D+00
     14  0.000000D+00  0.000000D+00  0.000000D+00  0.000000D+00  0.669730D-03
     15  0.000000D+00  0.000000D+00  0.000000D+00  0.000000D+00  0.168462D+00
     16  0.115238D+01  0.273954D+01  0.291351D+01  0.398922D-01  0.000000D+00
     17  0.234723D+01  0.433376D+01  0.146771D+01  0.112506D+00  0.000000D+00
     18 -0.185524D+01 -0.399769D+01 -0.436692D+01 -0.477542D-01  0.000000D+00
     19  0.871483D-03  0.294269D-01  0.337641D-01  0.138364D+01  0.000000D+00
     20  0.000000D+00  0.000000D+00  0.000000D+00  0.000000D+00  0.137735D+01
     21  0.115430D+01  0.282626D+01 -0.101399D+01  0.288808D+01  0.000000D+00
     22  0.234822D+01  0.437618D+01 -0.493796D+00  0.151367D+01  0.000000D+00
     23  0.621021D+00  0.137067D+01  0.780000D+00  0.187161D+01  0.000000D+00
     24 -0.175278D+01 -0.386526D+01  0.186358D+01 -0.385392D+01  0.000000D+00
     25  0.000000D+00  0.000000D+00  0.000000D+00  0.000000D+00  0.143374D+01
     26  0.000000D+00  0.000000D+00  0.000000D+00  0.000000D+00  0.000000D+00
     27  0.000000D+00  0.000000D+00  0.000000D+00  0.000000D+00  0.000000D+00
     28  0.000000D+00  0.000000D+00  0.000000D+00  0.000000D+00  0.000000D+00
     29  0.000000D+00  0.000000D+00  0.000000D+00  0.000000D+00  0.000000D+00
     30  0.000000D+00  0.000000D+00  0.000000D+00  0.000000D+00  0.000000D+00
     31  0.325621D-03  0.287464D-02 -0.284023D-02  0.377797D-02  0.000000D+00
     32  0.123970D-02  0.903740D-02 -0.755139D-02  0.119222D-01  0.000000D+00
     33 -0.158868D-02 -0.114773D-01  0.113887D-01 -0.136911D-01  0.000000D+00
     34  0.000000D+00  0.000000D+00  0.000000D+00  0.000000D+00  0.140546D-02
     35  0.000000D+00  0.465087D-05 -0.824114D-05  0.125615D-04  0.000000D+00
     36  0.000000D+00  0.732307D-05 -0.152309D-04  0.180179D-04  0.000000D+00
     37  0.000000D+00  0.000000D+00  0.000000D+00  0.000000D+00  0.000000D+00
     38  0.000000D+00 -0.964956D-05  0.184828D-04 -0.248557D-04  0.000000D+00
     39  0.000000D+00  0.000000D+00  0.000000D+00  0.000000D+00  0.120628D-05
     40  0.000000D+00  0.000000D+00  0.000000D+00  0.000000D+00 -0.153581D-05
     41  0.000000D+00  0.204713D-03 -0.192596D-03  0.479034D-03  0.000000D+00
     42  0.564572D-01  0.160743D+00 -0.564956D-01  0.143481D+00  0.000000D+00
     43  0.000000D+00  0.122156D-04 -0.117903D-04  0.386278D-04  0.000000D+00
     44  0.000000D+00 -0.306544D-04  0.392166D-04 -0.932596D-04  0.000000D+00
     45  0.000000D+00  0.000000D+00  0.000000D+00  0.000000D+00  0.379670D-05
     46  0.000000D+00  0.000000D+00  0.000000D+00  0.000000D+00  0.000000D+00
     47  0.231376D-03  0.123179D-02 -0.932959D-03  0.144341D-02  0.000000D+00
     48  0.000000D+00  0.000000D+00  0.000000D+00  0.000000D+00  0.000000D+00
     49  0.000000D+00  0.000000D+00  0.000000D+00  0.000000D+00  0.000000D+00
     50  0.000000D+00  0.000000D+00  0.000000D+00  0.000000D+00  0.000000D+00
                6             7             8             9            10 
      6  0.930825D+01
      7 -0.166906D-01  0.708360D+01
      8  0.399983D+00 -0.113988D+00  0.708457D+01
      9  0.000000D+00  0.000000D+00  0.000000D+00  0.684258D+01
     10  0.630191D+01  0.880797D-01  0.147455D+00  0.000000D+00  0.896037D+01
     11  0.628770D+01 -0.541982D-01  0.504041D+00  0.000000D+00  0.295696D+01
     12  0.614433D+01 -0.100435D-01  0.129420D+00  0.000000D+00  0.291014D+01
     13 -0.105225D+00  0.255400D+00 -0.938740D-01  0.000000D+00 -0.868899D-01
     14  0.000000D+00  0.000000D+00  0.000000D+00 -0.173958D-01  0.000000D+00
     15  0.000000D+00  0.000000D+00  0.000000D+00  0.224161D+00  0.000000D+00
     16  0.365023D+01  0.434528D+01  0.565755D-01  0.000000D+00  0.476556D+01
     17  0.557192D+01  0.302202D+01  0.253254D+00  0.000000D+00  0.398467D+01
     18 -0.304677D+01 -0.174459D+01 -0.349365D-01  0.000000D+00 -0.410967D+01
     19  0.615061D-01  0.810227D-01  0.199854D+01  0.000000D+00  0.680252D-01
     20  0.000000D+00  0.000000D+00  0.000000D+00  0.198772D+01  0.000000D+00
     21  0.391741D+01 -0.162332D+01  0.455627D+01  0.000000D+00  0.192558D+01
     22  0.577730D+01 -0.116806D+01  0.335959D+01  0.000000D+00  0.352687D+01
     23  0.101057D+01  0.177653D+01  0.116528D+01  0.000000D+00 -0.511579D+00
     24 -0.290882D+01  0.119994D+01 -0.123160D+01  0.000000D+00 -0.225196D+01
     25  0.000000D+00  0.000000D+00  0.000000D+00  0.217522D+01  0.000000D+00
     26  0.325647D-03 -0.123950D-02  0.158925D-02  0.000000D+00  0.000000D+00
     27  0.277571D-02 -0.866220D-02  0.111970D-01  0.000000D+00  0.437301D-05
     28  0.283112D-02 -0.745769D-02  0.114761D-01  0.000000D+00  0.793543D-05
     29 -0.350780D-02  0.110053D-01 -0.128024D-01  0.000000D+00 -0.118203D-04
     30  0.000000D+00  0.000000D+00  0.000000D+00  0.138229D-02  0.000000D+00
     31  0.457526D-01 -0.874450D-01  0.114298D+00  0.000000D+00  0.858936D-02
     32  0.903211D-01 -0.127119D+00  0.220093D+00  0.000000D+00  0.198321D-01
     33 -0.113566D+00  0.211508D+00 -0.235397D+00  0.000000D+00 -0.321946D-01
     34  0.000000D+00  0.000000D+00  0.000000D+00  0.406673D-01  0.000000D+00
     35  0.874473D-02 -0.199055D-01  0.331272D-01  0.000000D+00  0.914062D-04
     36  0.118554D-01 -0.346230D-01  0.377358D-01  0.000000D+00  0.198991D-03
     37  0.293131D-02 -0.863282D-02  0.111420D-01  0.000000D+00  0.996908D-05
     38 -0.123245D-01  0.298293D-01 -0.415658D-01  0.000000D+00 -0.216490D-03
     39  0.000000D+00  0.000000D+00  0.000000D+00  0.477425D-02  0.000000D+00
     40  0.000000D+00  0.000000D+00  0.000000D+00 -0.598764D-02  0.000000D+00
     41  0.312284D-01 -0.462146D-01  0.110720D+00  0.000000D+00  0.876920D-03
     42  0.467603D+00 -0.330088D+00  0.798610D+00  0.000000D+00  0.170090D+00
     43  0.101476D-01 -0.463451D-02  0.401770D-01  0.000000D+00  0.711588D-04
     44 -0.297496D-01  0.491390D-01 -0.107423D+00  0.000000D+00 -0.342427D-03
     45  0.000000D+00  0.000000D+00  0.000000D+00  0.114184D-01  0.000000D+00
     46  0.677808D-04 -0.223685D-03  0.325492D-03  0.000000D+00  0.000000D+00
     47  0.132540D-01 -0.220739D-01  0.332156D-01  0.000000D+00  0.256782D-02
     48  0.259353D-04 -0.857230D-04  0.138167D-03  0.000000D+00  0.000000D+00
     49 -0.444421D-04  0.163552D-03 -0.226660D-03  0.000000D+00  0.000000D+00
     50  0.000000D+00  0.000000D+00  0.000000D+00  0.916959D-05  0.000000D+00
               11            12            13            14            15 
     11  0.892361D+01
     12  0.290822D+01  0.862261D+01
     13 -0.138897D+00 -0.261462D-01  0.887089D+01
     14  0.000000D+00  0.000000D+00  0.000000D+00  0.873041D+01
     15  0.000000D+00  0.000000D+00  0.000000D+00 -0.452866D-01  0.872466D+01
     16  0.146088D+01  0.144844D+01  0.591822D-01  0.000000D+00  0.000000D+00
     17  0.339513D+01  0.332597D+01  0.185397D-01  0.000000D+00  0.000000D+00
     18 -0.161568D+01 -0.160537D+01 -0.602225D-01  0.000000D+00  0.000000D+00
     19  0.490037D-01  0.153119D-01  0.315501D+01  0.000000D+00  0.000000D+00
     20  0.000000D+00  0.000000D+00  0.000000D+00  0.314252D+01  0.265210D-01
     21  0.473154D+01  0.150867D+01 -0.197969D+01  0.000000D+00  0.000000D+00
     22  0.407515D+01  0.337557D+01 -0.430386D+00  0.000000D+00  0.000000D+00
     23  0.247125D+01  0.551880D+00  0.202239D+01  0.000000D+00  0.000000D+00
     24 -0.334293D+01 -0.156066D+01  0.221643D+01  0.000000D+00  0.000000D+00
     25  0.000000D+00  0.000000D+00  0.000000D+00 -0.112928D+01  0.318517D+01
     26  0.000000D+00  0.000000D+00  0.000000D+00  0.000000D+00  0.000000D+00
     27  0.711316D-05  0.000000D+00 -0.920966D-05  0.000000D+00  0.000000D+00
     28  0.151253D-04  0.000000D+00 -0.180562D-04  0.000000D+00  0.000000D+00
     29 -0.174628D-04  0.000000D+00  0.237029D-04  0.000000D+00  0.000000D+00
     30  0.000000D+00  0.000000D+00  0.000000D+00 -0.117279D-05  0.151167D-05
     31  0.129219D-01  0.298412D-02 -0.128351D-01  0.000000D+00  0.000000D+00
     32  0.381576D-01  0.885135D-02 -0.315382D-01  0.000000D+00  0.000000D+00
     33 -0.409806D-01 -0.112713D-01  0.430539D-01  0.000000D+00  0.000000D+00
     34  0.000000D+00  0.000000D+00  0.000000D+00 -0.475115D-02  0.621919D-02
     35  0.205826D-03  0.102175D-04 -0.219939D-03  0.000000D+00  0.000000D+00
     36  0.262782D-03  0.160489D-04 -0.368712D-03  0.000000D+00  0.000000D+00
     37  0.160755D-04  0.239119D-05 -0.204959D-04  0.000000D+00  0.000000D+00
     38 -0.375653D-03 -0.207538D-04  0.458906D-03  0.000000D+00  0.000000D+00
     39  0.000000D+00  0.000000D+00  0.000000D+00 -0.252972D-04  0.357708D-04
     40  0.000000D+00  0.000000D+00  0.000000D+00  0.352620D-04 -0.431296D-04
     41  0.395377D-02  0.271046D-03 -0.258385D-02  0.000000D+00  0.000000D+00
     42  0.322181D+00  0.139404D+00 -0.126430D+00  0.000000D+00  0.000000D+00
     43  0.701465D-03  0.227192D-04 -0.341874D-03  0.000000D+00  0.000000D+00
     44 -0.162577D-02 -0.575203D-04  0.115819D-02  0.000000D+00  0.000000D+00
     45  0.000000D+00  0.000000D+00  0.000000D+00 -0.547069D-04  0.134586D-03
     46  0.000000D+00  0.000000D+00  0.000000D+00  0.000000D+00  0.000000D+00
     47  0.437259D-02  0.127448D-02 -0.344070D-02  0.000000D+00  0.000000D+00
     48  0.000000D+00  0.000000D+00  0.000000D+00  0.000000D+00  0.000000D+00
     49  0.000000D+00  0.000000D+00  0.000000D+00  0.000000D+00  0.000000D+00
     50  0.000000D+00  0.000000D+00  0.000000D+00  0.000000D+00  0.000000D+00
               16            17            18            19            20 
     16  0.775661D+01
     17  0.471144D+01  0.610936D+01
     18 -0.136927D+01 -0.116373D+01  0.783969D+01
     19  0.100216D+00  0.877273D-01 -0.211370D-01  0.692785D+01
     20  0.000000D+00  0.000000D+00  0.000000D+00  0.000000D+00  0.691083D+01
     21  0.422938D+00  0.182221D+01 -0.468906D+00  0.256145D+00  0.000000D+00
     22  0.170737D+01  0.360970D+01 -0.124001D+01  0.542103D+00  0.000000D+00
     23  0.400863D+00  0.928927D+00 -0.458413D+00  0.320298D+00  0.000000D+00
     24 -0.358211D+00 -0.980232D+00  0.460027D+00 -0.181985D+00  0.000000D+00
     25  0.000000D+00  0.000000D+00  0.000000D+00  0.000000D+00  0.723437D-01
     26  0.000000D+00  0.747498D-03  0.000000D+00  0.000000D+00  0.000000D+00
     27  0.000000D+00  0.342099D-02  0.000000D+00  0.000000D+00  0.000000D+00
     28  0.000000D+00  0.342139D-02  0.000000D+00  0.000000D+00  0.000000D+00
     29  0.000000D+00 -0.284346D-02  0.000000D+00  0.000000D+00  0.000000D+00
     30  0.000000D+00  0.000000D+00  0.000000D+00  0.000000D+00  0.000000D+00
     31  0.224666D-03  0.278414D-01 -0.144959D-03  0.994505D-04  0.000000D+00
     32  0.901900D-03  0.585032D-01 -0.612894D-03  0.452413D-03  0.000000D+00
     33 -0.825467D-03 -0.513901D-01  0.600460D-03 -0.365616D-03  0.000000D+00
     34  0.000000D+00  0.000000D+00  0.000000D+00  0.000000D+00  0.386558D-04
     35  0.000000D+00  0.938135D-02  0.000000D+00  0.000000D+00  0.000000D+00
     36  0.000000D+00  0.758091D-02  0.000000D+00  0.000000D+00  0.000000D+00
     37  0.000000D+00  0.343527D-02  0.000000D+00  0.000000D+00  0.000000D+00
     38  0.000000D+00 -0.840751D-02  0.000000D+00  0.000000D+00  0.000000D+00
     39  0.000000D+00  0.000000D+00  0.000000D+00  0.000000D+00  0.000000D+00
     40  0.000000D+00  0.000000D+00  0.000000D+00  0.000000D+00  0.000000D+00
     41  0.336729D-04  0.348851D-01 -0.573205D-05  0.673653D-05  0.000000D+00
     42  0.427226D-01  0.324596D+00 -0.325226D-01  0.285683D-01  0.000000D+00
     43  0.453478D-05  0.174006D-01  0.000000D+00  0.000000D+00  0.000000D+00
     44 -0.604765D-05 -0.266007D-01  0.000000D+00  0.000000D+00  0.000000D+00
     45  0.000000D+00  0.000000D+00  0.000000D+00  0.000000D+00  0.000000D+00
     46  0.000000D+00  0.192787D-03  0.000000D+00  0.000000D+00  0.000000D+00
     47  0.160479D-03  0.993840D-02 -0.116571D-03  0.925717D-04  0.000000D+00
     48  0.000000D+00  0.113593D-03  0.000000D+00  0.000000D+00  0.000000D+00
     49  0.000000D+00 -0.148976D-03  0.000000D+00  0.000000D+00  0.000000D+00
     50  0.000000D+00  0.000000D+00  0.000000D+00  0.000000D+00  0.000000D+00
               21            22            23            24            25 
     21  0.867278D+01
     22  0.531455D+01  0.702266D+01
     23  0.285492D+00  0.238262D+00  0.795905D+01
     24 -0.100793D+01 -0.849430D+00 -0.336272D+00  0.866336D+01
     25  0.000000D+00  0.000000D+00  0.000000D+00  0.000000D+00  0.780447D+01
     26  0.662221D-04  0.182493D+00  0.000000D+00  0.000000D+00  0.000000D+00
     27  0.362446D-02  0.450500D+00 -0.964464D-03  0.954731D-03  0.000000D+00
     28  0.560507D-02  0.267533D+00 -0.182124D-02  0.198805D-02  0.000000D+00
     29 -0.540863D-02 -0.249618D+00  0.196393D-02 -0.175204D-02  0.000000D+00
     30  0.000000D+00  0.000000D+00  0.000000D+00  0.000000D+00  0.186812D-03
     31  0.130987D+00  0.101114D+01 -0.955810D-01  0.909720D-01  0.000000D+00
     32  0.306031D+00  0.112414D+01 -0.192508D+00  0.236429D+00  0.000000D+00
     33 -0.302586D+00 -0.107677D+01  0.246381D+00 -0.175714D+00  0.000000D+00
     34  0.000000D+00  0.000000D+00  0.000000D+00  0.000000D+00  0.568781D-01
     35  0.254922D-01  0.598066D+00 -0.127627D-01  0.156820D-01  0.000000D+00
     36  0.242836D-01  0.563741D+00 -0.153534D-01  0.120213D-01  0.000000D+00
     37  0.378193D-02  0.378078D+00 -0.115492D-02  0.113866D-02  0.000000D+00
     38 -0.363615D-01 -0.333876D+00  0.223707D-01 -0.219339D-01  0.000000D+00
     39  0.000000D+00  0.000000D+00  0.000000D+00  0.000000D+00  0.270916D-02
     40  0.000000D+00  0.000000D+00  0.000000D+00  0.000000D+00 -0.266084D-02
     41  0.126833D+00  0.110134D+01 -0.573652D-01  0.129052D+00  0.000000D+00
     42  0.108599D+01  0.258585D+01 -0.268910D+00  0.567422D+00  0.000000D+00
     43  0.522904D-01  0.124307D+00 -0.125891D-01  0.592482D-01  0.000000D+00
     44 -0.132415D+00 -0.677703D+00  0.631343D-01 -0.129993D+00  0.000000D+00
     45  0.000000D+00  0.000000D+00  0.000000D+00  0.000000D+00  0.133510D-01
     46  0.431581D-04  0.513668D-01 -0.535813D-05  0.682764D-05  0.000000D+00
     47  0.362378D-01  0.369072D+00 -0.207790D-01  0.253923D-01  0.000000D+00
     48  0.781458D-05  0.300936D-01  0.000000D+00  0.000000D+00  0.000000D+00
     49 -0.109680D-04 -0.469473D-01  0.000000D+00  0.000000D+00  0.000000D+00
     50  0.000000D+00  0.000000D+00  0.000000D+00  0.000000D+00  0.000000D+00
               26            27            28            29            30 
     26  0.642637D+02
     27  0.557409D+01  0.133133D+02
     28  0.281086D-01  0.191455D+00  0.144581D+02
     29  0.488863D-02  0.328929D-01 -0.396272D-01  0.144433D+02
     30  0.000000D+00  0.000000D+00  0.000000D+00  0.000000D+00  0.143521D+02
     31  0.578386D+01  0.915154D+01  0.183374D+00  0.279309D-01  0.000000D+00
     32  0.387332D-02  0.124664D+00  0.520252D+01 -0.376264D-01  0.000000D+00
     33  0.673645D-03  0.185025D-01 -0.376264D-01  0.518944D+01  0.000000D+00
     34  0.000000D+00  0.000000D+00  0.000000D+00  0.000000D+00  0.510452D+01
     35  0.691764D+00  0.586562D+01  0.297659D+00  0.627649D-02  0.000000D+00
     36  0.691572D+00  0.585269D+01  0.563060D-01  0.610051D-01  0.000000D+00
     37  0.690401D+00  0.577267D+01  0.750684D-01  0.109424D-02  0.000000D+00
     38 -0.879746D-03 -0.604442D-01  0.108712D-01  0.975249D-01  0.000000D+00
     39  0.000000D+00  0.000000D+00  0.000000D+00  0.000000D+00  0.130022D+00
     40  0.000000D+00  0.000000D+00  0.000000D+00  0.000000D+00  0.189528D-02
     41  0.115540D+01  0.281597D+01  0.303521D+01 -0.107314D-01  0.000000D+00
     42  0.235096D+01  0.438393D+01  0.157208D+01  0.910945D-03  0.000000D+00
     43 -0.186113D+01 -0.409307D+01 -0.449664D+01  0.115182D-01  0.000000D+00
     44  0.797458D-05 -0.156182D-01 -0.262263D-01  0.143464D+01  0.000000D+00
     45  0.000000D+00  0.000000D+00  0.000000D+00  0.000000D+00  0.142555D+01
     46  0.115336D+01  0.273363D+01 -0.941753D+00  0.274330D+01  0.000000D+00
     47  0.234989D+01  0.433963D+01 -0.404246D+00  0.139142D+01  0.000000D+00
     48  0.620357D+00  0.135061D+01  0.742935D+00  0.182667D+01  0.000000D+00
     49 -0.174989D+01 -0.375512D+01  0.177147D+01 -0.371941D+01  0.000000D+00
     50  0.000000D+00  0.000000D+00  0.000000D+00  0.000000D+00  0.137313D+01
               31            32            33            34            35 
     31  0.935060D+01
     32  0.310880D+00  0.713741D+01
     33 -0.217747D-01 -0.124156D+00  0.712003D+01
     34  0.000000D+00  0.000000D+00  0.000000D+00  0.688033D+01
     35  0.633556D+01  0.429850D+00 -0.670223D-02  0.000000D+00  0.901028D+01
     36  0.631488D+01  0.710635D-01  0.569168D-01  0.000000D+00  0.297188D+01
     37  0.617231D+01  0.100733D+00 -0.132421D-01  0.000000D+00  0.292492D+01
     38 -0.111447D+00 -0.116086D-01  0.123086D+00  0.000000D+00 -0.931782D-01
     39  0.000000D+00  0.000000D+00  0.000000D+00  0.174475D+00  0.000000D+00
     40  0.000000D+00  0.000000D+00  0.000000D+00 -0.229361D-01  0.000000D+00
     41  0.385835D+01  0.470570D+01 -0.512819D-01  0.000000D+00  0.505360D+01
     42  0.575929D+01  0.343477D+01 -0.119817D+00  0.000000D+00  0.413734D+01
     43 -0.310063D+01 -0.171470D+01  0.795074D-02  0.000000D+00 -0.425400D+01
     44 -0.686505D-01 -0.121478D+00  0.215587D+01  0.000000D+00 -0.773841D-01
     45  0.000000D+00  0.000000D+00  0.000000D+00  0.213014D+01  0.000000D+00
     46  0.362844D+01 -0.140374D+01  0.407083D+01  0.000000D+00  0.180593D+01
     47  0.556001D+01 -0.831327D+00  0.284361D+01  0.000000D+00  0.345251D+01
     48  0.105083D+01  0.155700D+01  0.121675D+01  0.000000D+00 -0.416143D+00
     49 -0.285451D+01  0.114568D+01 -0.132326D+01  0.000000D+00 -0.213355D+01
     50  0.000000D+00  0.000000D+00  0.000000D+00  0.197236D+01  0.000000D+00
               36            37            38            39            40 
     36  0.896102D+01
     37  0.292105D+01  0.866196D+01
     38 -0.144698D+00 -0.279457D-01  0.891565D+01
     39  0.000000D+00  0.000000D+00  0.000000D+00  0.877476D+01
     40  0.000000D+00  0.000000D+00  0.000000D+00 -0.484033D-01  0.876315D+01
     41  0.151758D+01  0.150078D+01 -0.542760D-01  0.000000D+00  0.000000D+00
     42  0.345598D+01  0.338143D+01 -0.824551D-01  0.000000D+00  0.000000D+00
     43 -0.166477D+01 -0.165165D+01  0.331305D-01  0.000000D+00  0.000000D+00
     44 -0.319351D-01 -0.108347D-01  0.335561D+01  0.000000D+00  0.000000D+00
     45  0.000000D+00  0.000000D+00  0.000000D+00  0.332963D+01 -0.187663D-01
     46  0.438250D+01  0.144407D+01 -0.175967D+01  0.000000D+00  0.000000D+00
     47  0.391616D+01  0.333028D+01 -0.323901D+00  0.000000D+00  0.000000D+00
     48  0.238929D+01  0.543892D+00  0.184679D+01  0.000000D+00  0.000000D+00
     49 -0.321875D+01 -0.150664D+01  0.205779D+01  0.000000D+00  0.000000D+00
     50  0.000000D+00  0.000000D+00  0.000000D+00 -0.102628D+01  0.294881D+01
               41            42            43            44            45 
     41  0.840164D+01
     42  0.513606D+01  0.675223D+01
     43 -0.121308D+01 -0.102701D+01  0.847035D+01
     44 -0.163714D+00 -0.143317D+00 -0.340660D-01  0.760157D+01
     45  0.000000D+00  0.000000D+00  0.000000D+00  0.000000D+00  0.754155D+01
     46  0.417522D+00  0.168982D+01 -0.467388D+00  0.252366D+00  0.000000D+00
     47  0.178061D+01  0.354758D+01 -0.124506D+01  0.512280D+00  0.000000D+00
     48  0.391994D+00  0.906215D+00 -0.452989D+00  0.313923D+00  0.000000D+00
     49 -0.354388D+00 -0.990059D+00  0.457300D+00 -0.179705D+00  0.000000D+00
     50  0.000000D+00  0.000000D+00  0.000000D+00  0.000000D+00  0.713534D-01
               46            47            48            49            50 
     46  0.768893D+01
     47  0.466689D+01  0.604168D+01
[...]
  37        4ZZ         0.00000   0.00000   0.00000   0.00000   0.00000
  38        4XY         0.00000   0.00000   0.00000   0.00000   0.00000
  39        4XZ         0.00000   0.00000   0.00000   0.00000   0.00000
  40        4YZ         0.00000   0.00000   0.00000   0.00000   0.00000
  41 5   H  1S         -0.00004  -0.00002  -0.00005   0.00000   0.00000
  42        2S         -0.00011  -0.00031   0.00152   0.00000   0.00000
  43        3PX         0.00000   0.00000   0.00001   0.00000   0.00000
  44        3PY        -0.00001   0.00000   0.00002   0.00000   0.00000
  45        3PZ         0.00000   0.00000   0.00000   0.00000   0.00000
  46 6   H  1S          0.00000   0.00000   0.00000   0.00000   0.00000
  47        2S          0.00002   0.00001   0.00003   0.00000   0.00000
  48        3PX         0.00000   0.00000   0.00000   0.00000   0.00000
  49        3PY         0.00000   0.00000   0.00000   0.00000   0.00000
  50        3PZ         0.00000   0.00000   0.00000   0.00000   0.00000
                          11        12        13        14        15
  11        4YY         0.00164
  12        4ZZ         0.00004   0.00028
  13        4XY         0.00000   0.00000   0.00060
  14        4XZ         0.00000   0.00000   0.00000   0.00026
  15        4YZ         0.00000   0.00000   0.00000   0.00000   0.00052
  16 2   H  1S         -0.00042  -0.00035   0.00000   0.00000   0.00000
  17        2S         -0.00014  -0.00007   0.00000   0.00000   0.00000
  18        3PX        -0.00006  -0.00006   0.00000   0.00000   0.00000
  19        3PY         0.00000   0.00000   0.00012   0.00000   0.00000
  20        3PZ         0.00000   0.00000   0.00000   0.00017   0.00000
  21 3   H  1S          0.00683  -0.00039  -0.00020   0.00000   0.00000
  22        2S          0.00261   0.00006  -0.00002   0.00000   0.00000
  23        3PX         0.00013  -0.00001   0.00012   0.00000   0.00000
  24        3PY         0.00019  -0.00005   0.00005   0.00000   0.00000
  25        3PZ         0.00000   0.00000   0.00000  -0.00006   0.00023
  26 4   O  1S          0.00000   0.00000   0.00000   0.00000   0.00000
  27        2S          0.00000   0.00000   0.00000   0.00000   0.00000
  28        2PX         0.00000   0.00000   0.00000   0.00000   0.00000
  29        2PY         0.00000   0.00000   0.00000   0.00000   0.00000
  30        2PZ         0.00000   0.00000   0.00000   0.00000   0.00000
  31        3S          0.00000   0.00000   0.00000   0.00000   0.00000
  32        3PX         0.00000   0.00000   0.00000   0.00000   0.00000
  33        3PY         0.00000   0.00000   0.00000   0.00000   0.00000
  34        3PZ         0.00000   0.00000   0.00000   0.00000   0.00000
  35        4XX         0.00000   0.00000   0.00000   0.00000   0.00000
  36        4YY         0.00000   0.00000   0.00000   0.00000   0.00000
  37        4ZZ         0.00000   0.00000   0.00000   0.00000   0.00000
  38        4XY         0.00000   0.00000   0.00000   0.00000   0.00000
  39        4XZ         0.00000   0.00000   0.00000   0.00000   0.00000
  40        4YZ         0.00000   0.00000   0.00000   0.00000   0.00000
  41 5   H  1S          0.00000   0.00000   0.00000   0.00000   0.00000
  42        2S          0.00004  -0.00001  -0.00001   0.00000   0.00000
  43        3PX         0.00000   0.00000   0.00000   0.00000   0.00000
  44        3PY         0.00000   0.00000   0.00000   0.00000   0.00000
  45        3PZ         0.00000   0.00000   0.00000   0.00000   0.00000
  46 6   H  1S          0.00000   0.00000   0.00000   0.00000   0.00000
  47        2S          0.00000   0.00000   0.00000   0.00000   0.00000
  48        3PX         0.00000   0.00000   0.00000   0.00000   0.00000
  49        3PY         0.00000   0.00000   0.00000   0.00000   0.00000
  50        3PZ         0.00000   0.00000   0.00000   0.00000   0.00000
                          16        17        18        19        20
  16 2   H  1S          0.17872
  17        2S          0.03782   0.02350
  18        3PX         0.00000   0.00000   0.00192
  19        3PY         0.00000   0.00000   0.00000   0.00050
  20        3PZ         0.00000   0.00000   0.00000   0.00000   0.00069
  21 3   H  1S         -0.00133  -0.00476   0.00002   0.00024   0.00000
  22        2S         -0.00548  -0.00387  -0.00029   0.00022   0.00000
  23        3PX         0.00033   0.00024   0.00003   0.00001   0.00000
  24        3PY        -0.00007  -0.00023   0.00002   0.00001   0.00000
  25        3PZ         0.00000   0.00000   0.00000   0.00000   0.00001
  26 4   O  1S          0.00000   0.00000   0.00000   0.00000   0.00000
  27        2S          0.00000   0.00000   0.00000   0.00000   0.00000
  28        2PX         0.00000   0.00000   0.00000   0.00000   0.00000
  29        2PY         0.00000   0.00000   0.00000   0.00000   0.00000
  30        2PZ         0.00000   0.00000   0.00000   0.00000   0.00000
  31        3S          0.00000  -0.00001   0.00000   0.00000   0.00000
  32        3PX         0.00000   0.00000   0.00000   0.00000   0.00000
  33        3PY         0.00000  -0.00002   0.00000   0.00000   0.00000
  34        3PZ         0.00000   0.00000   0.00000   0.00000   0.00000
  35        4XX         0.00000   0.00000   0.00000   0.00000   0.00000
  36        4YY         0.00000   0.00000   0.00000   0.00000   0.00000
  37        4ZZ         0.00000   0.00000   0.00000   0.00000   0.00000
  38        4XY         0.00000   0.00000   0.00000   0.00000   0.00000
  39        4XZ         0.00000   0.00000   0.00000   0.00000   0.00000
  40        4YZ         0.00000   0.00000   0.00000   0.00000   0.00000
  41 5   H  1S          0.00000   0.00001   0.00000   0.00000   0.00000
  42        2S          0.00003   0.00011   0.00000   0.00000   0.00000
  43        3PX         0.00000   0.00000   0.00000   0.00000   0.00000
  44        3PY         0.00000   0.00000   0.00000   0.00000   0.00000
  45        3PZ         0.00000   0.00000   0.00000   0.00000   0.00000
  46 6   H  1S          0.00000   0.00000   0.00000   0.00000   0.00000
  47        2S          0.00000   0.00000   0.00000   0.00000   0.00000
  48        3PX         0.00000   0.00000   0.00000   0.00000   0.00000
  49        3PY         0.00000   0.00000   0.00000   0.00000   0.00000
  50        3PZ         0.00000   0.00000   0.00000   0.00000   0.00000
                          21        22        23        24        25
  21 3   H  1S          0.18052
  22        2S          0.03517   0.02685
  23        3PX         0.00000   0.00000   0.00063
  24        3PY         0.00000   0.00000   0.00000   0.00165
  25        3PZ         0.00000   0.00000   0.00000   0.00000   0.00071
  26 4   O  1S          0.00000  -0.00004   0.00000   0.00000   0.00000
  27        2S          0.00000   0.00067   0.00000   0.00000   0.00000
  28        2PX         0.00000  -0.00016   0.00000   0.00000   0.00000
  29        2PY         0.00000   0.00144   0.00000   0.00000   0.00000
  30        2PZ         0.00000   0.00000   0.00000   0.00000   0.00000
  31        3S         -0.00021   0.00351   0.00003   0.00002   0.00000
  32        3PX        -0.00008  -0.00106   0.00002   0.00008   0.00000
  33        3PY         0.00014   0.00478   0.00004   0.00000   0.00000
  34        3PZ         0.00000   0.00000   0.00000   0.00000   0.00001
  35        4XX         0.00000   0.00001   0.00000   0.00000   0.00000
  36        4YY         0.00000  -0.00016   0.00000   0.00000   0.00000
  37        4ZZ         0.00000  -0.00001   0.00000   0.00000   0.00000
  38        4XY         0.00000   0.00005   0.00000   0.00000   0.00000
  39        4XZ         0.00000   0.00000   0.00000   0.00000   0.00000
  40        4YZ         0.00000   0.00000   0.00000   0.00000   0.00000
  41 5   H  1S          0.00008   0.00056   0.00001   0.00005   0.00000
  42        2S          0.00173   0.00010  -0.00002   0.00002   0.00000
  43        3PX         0.00001  -0.00001   0.00000   0.00000   0.00000
  44        3PY         0.00004   0.00019   0.00000   0.00000   0.00000
  45        3PZ         0.00000   0.00000   0.00000   0.00000   0.00000
  46 6   H  1S          0.00000  -0.00010   0.00000   0.00000   0.00000
  47        2S          0.00001  -0.00042   0.00000   0.00000   0.00000
  48        3PX         0.00000   0.00000   0.00000   0.00000   0.00000
  49        3PY         0.00000   0.00000   0.00000   0.00000   0.00000
  50        3PZ         0.00000   0.00000   0.00000   0.00000   0.00000
                          26        27        28        29        30
  26 4   O  1S          2.07440
  27        2S         -0.04374   0.55818
  28        2PX         0.00000   0.00000   0.70853
  29        2PY         0.00000   0.00000   0.00000   0.75907
  30        2PZ         0.00000   0.00000   0.00000   0.00000   0.96148
  31        3S         -0.03447   0.40537   0.00000   0.00000   0.00000
  32        3PX         0.00000   0.00000   0.16992   0.00000   0.00000
  33        3PY         0.00000   0.00000   0.00000   0.19689   0.00000
  34        3PZ         0.00000   0.00000   0.00000   0.00000   0.30676
  35        4XX        -0.00056  -0.00253   0.00000   0.00000   0.00000
  36        4YY        -0.00051  -0.00397   0.00000   0.00000   0.00000
  37        4ZZ        -0.00054  -0.00348   0.00000   0.00000   0.00000
  38        4XY         0.00000   0.00000   0.00000   0.00000   0.00000
  39        4XZ         0.00000   0.00000   0.00000   0.00000   0.00000
  40        4YZ         0.00000   0.00000   0.00000   0.00000   0.00000
  41 5   H  1S         -0.00145   0.02490   0.09385   0.00000   0.00000
  42        2S          0.00075  -0.01165   0.02036   0.00000   0.00000
  43        3PX        -0.00057   0.00762   0.00891   0.00000   0.00000
  44        3PY         0.00000   0.00000   0.00000   0.00278   0.00000
  45        3PZ         0.00000   0.00000   0.00000   0.00000   0.00370
  46 6   H  1S         -0.00144   0.02522   0.00969   0.08423   0.00000
  47        2S          0.00033  -0.00644   0.00184   0.01663   0.00000
  48        3PX        -0.00005   0.00066   0.00116   0.00250   0.00000
  49        3PY        -0.00053   0.00719   0.00238   0.00579   0.00000
  50        3PZ         0.00000   0.00000   0.00000   0.00000   0.00367
                          31        32        33        34        35
  31        3S          0.56689
  32        3PX         0.00000   0.16422
  33        3PY         0.00000   0.00000   0.20650
  34        3PZ         0.00000   0.00000   0.00000   0.38914
  35        4XX        -0.00543   0.00000   0.00000   0.00000   0.00102
  36        4YY        -0.00977   0.00000   0.00000   0.00000   0.00002
  37        4ZZ        -0.00369   0.00000   0.00000   0.00000   0.00005
  38        4XY         0.00000   0.00000   0.00000   0.00000   0.00000
  39        4XZ         0.00000   0.00000   0.00000   0.00000   0.00000
  40        4YZ         0.00000   0.00000   0.00000   0.00000   0.00000
  41 5   H  1S          0.01706   0.08880   0.00000   0.00000   0.00594
  42        2S         -0.03960   0.03233   0.00000   0.00000   0.00227
  43        3PX         0.00444   0.00123   0.00000   0.00000   0.00028
  44        3PY         0.00000   0.00000   0.00279   0.00000   0.00000
  45        3PZ         0.00000   0.00000   0.00000   0.00458   0.00000
  46 6   H  1S          0.01537   0.00709   0.08178   0.00000  -0.00104
  47        2S         -0.02551   0.00188   0.02694   0.00000  -0.00063
  48        3PX        -0.00002   0.00164   0.00102   0.00000  -0.00003
  49        3PY         0.00459   0.00082   0.00054   0.00000  -0.00015
  50        3PZ         0.00000   0.00000   0.00000   0.00454   0.00000
                          36        37        38        39        40
  36        4YY         0.00168
  37        4ZZ         0.00007   0.00025
  38        4XY         0.00000   0.00000   0.00062
  39        4XZ         0.00000   0.00000   0.00000   0.00027
  40        4YZ         0.00000   0.00000   0.00000   0.00000   0.00050
  41 5   H  1S         -0.00041  -0.00033   0.00000   0.00000   0.00000
  42        2S          0.00041   0.00000   0.00000   0.00000   0.00000
  43        3PX        -0.00005  -0.00005   0.00000   0.00000   0.00000
  44        3PY         0.00000   0.00000   0.00012   0.00000   0.00000
  45        3PZ         0.00000   0.00000   0.00000   0.00017   0.00000
  46 6   H  1S          0.00687  -0.00022  -0.00029   0.00000   0.00000
  47        2S          0.00258   0.00005  -0.00003   0.00000   0.00000
  48        3PX         0.00014  -0.00001   0.00013   0.00000   0.00000
  49        3PY         0.00022  -0.00004   0.00004   0.00000   0.00000
  50        3PZ         0.00000   0.00000   0.00000  -0.00006   0.00022
                          41        42        43        44        45
  41 5   H  1S          0.17974
  42        2S          0.03897   0.02929
  43        3PX         0.00000   0.00000   0.00183
  44        3PY         0.00000   0.00000   0.00000   0.00053
  45        3PZ         0.00000   0.00000   0.00000   0.00000   0.00071
  46 6   H  1S         -0.00131  -0.00299   0.00004   0.00024   0.00000
  47        2S         -0.00487  -0.00163  -0.00021   0.00023   0.00000
  48        3PX         0.00032   0.00029   0.00003   0.00001   0.00000
  49        3PY        -0.00006  -0.00022   0.00002   0.00001   0.00000
  50        3PZ         0.00000   0.00000   0.00000   0.00000   0.00001
                          46        47        48        49        50
  46 6   H  1S          0.17899
  47        2S          0.03680   0.02229
  48        3PX         0.00000   0.00000   0.00064
  49        3PY         0.00000   0.00000   0.00000   0.00177
  50        3PZ         0.00000   0.00000   0.00000   0.00000   0.00069
     Gross orbital populations:
                           1
   1 1   O  1S          1.99147
   2        2S          0.95832
   3        2PX         1.02111
   4        2PY         1.06752
   5        2PZ         1.27593
   6        3S          0.90283
   7        3PX         0.46958
   8        3PY         0.52481
   9        3PZ         0.70470
  10        4XX        -0.00234
  11        4YY        -0.00277
  12        4ZZ        -0.00826
  13        4XY         0.00066
  14        4XZ         0.00037
  15        4YZ         0.00075
  16 2   H  1S          0.43946
  17        2S          0.07261
  18        3PX         0.02418
  19        3PY         0.00668
  20        3PZ         0.00907
  21 3   H  1S          0.44285
  22        2S          0.06752
  23        3PX         0.00841
  24        3PY         0.02167
  25        3PZ         0.00919
  26 4   O  1S          1.99157
  27        2S          0.95796
  28        2PX         1.01647
  29        2PY         1.06928
  30        2PZ         1.27561
  31        3S          0.89810
  32        3PX         0.46668
  33        3PY         0.52078
  34        3PZ         0.70505
  35        4XX        -0.00078
  36        4YY        -0.00288
  37        4ZZ        -0.00794
  38        4XY         0.00064
  39        4XZ         0.00038
  40        4YZ         0.00072
  41 5   H  1S          0.44175
  42        2S          0.07198
  43        3PX         0.02353
  44        3PY         0.00696
  45        3PZ         0.00917
  46 6   H  1S          0.43893
  47        2S          0.06988
  48        3PX         0.00843
  49        3PY         0.02237
  50        3PZ         0.00906
          Condensed to atoms (all electrons):
               1          2          3          4          5          6
     1  O    8.346297   0.285804   0.272539  -0.001404   0.001378   0.000056
     2  H    0.285804   0.280966  -0.014894  -0.000021   0.000150  -0.000002
     3  H    0.272539  -0.014894   0.280695   0.009089   0.002739  -0.000522
     4  O   -0.001404  -0.000021   0.009089   8.333543   0.269183   0.281242
     5  H    0.001378   0.000150   0.002739   0.269183   0.290030  -0.010094
     6  H    0.000056  -0.000002  -0.000522   0.281242  -0.010094   0.277983
 Mulliken charges:
               1
     1  O   -0.904670
     2  H    0.447997
     3  H    0.450354
     4  O   -0.891632
     5  H    0.446615
     6  H    0.451336
 Sum of Mulliken charges =   0.00000
 Mulliken charges with hydrogens summed into heavy atoms:
               1
     1  O   -0.006319
     4  O    0.006319
 N-N= 3.506580624783D+01 E-N=-4.383318659364D+02  KE= 1.550518737200D+02
 Orbital energies and kinetic energies (alpha):
                                 1                 2
   1         O               -18.977670         28.984850
   2         O               -18.977325         28.983159
   3         O                -1.050371          2.760142
   4         O                -1.046331          2.805908
   5         O                -0.609684          1.948839
   6         O                -0.590265          2.116362
   7         O                -0.463920          2.430159
   8         O                -0.462426          2.444422
   9         O                -0.397130          2.512601
  10         O                -0.394752          2.539496
  11         V                -0.044761          1.322442
  12         V                 0.026163          1.302583
  13         V                 0.058541          1.392685
  14         V                 0.160590          1.551546
  15         V                 0.625390          2.432139
  16         V                 0.643711          2.676637
  17         V                 0.645371          2.558843
  18         V                 0.697115          3.319381
  19         V                 0.707488          2.235936
  20         V                 0.720529          3.328323
  21         V                 0.732071          2.493747
  22         V                 0.778172          2.423428
  23         V                 0.859901          2.705467
  24         V                 0.890934          2.898090
  25         V                 1.047201          2.401576
  26         V                 1.249440          2.661505
  27         V                 1.343532          2.510167
  28         V                 1.347975          2.516769
  29         V                 1.393752          2.552430
  30         V                 1.430820          2.646235
  31         V                 1.469907          2.633024
  32         V                 1.470292          2.632830
  33         V                 2.047727          3.398848
  34         V                 2.053571          3.329677
  35         V                 2.113137          3.181627
  36         V                 2.123278          3.256634
  37         V                 2.299208          3.761035
  38         V                 2.337451          3.820316
  39         V                 2.483057          3.508431
  40         V                 2.484177          3.508795
  41         V                 2.514452          3.592464
  42         V                 2.523521          3.601929
  43         V                 2.872457          4.074993
  44         V                 2.887178          4.060462
  45         V                 3.157573          6.814145
  46         V                 3.195009          6.428316
  47         V                 3.335403          5.534163
  48         V                 3.363460          5.729580
  49         V                 3.515342          7.985273
  50         V                 3.562200          8.907512
 Total kinetic energy from orbitals= 1.550518737200D+02
 No NMR shielding tensors so no spin-rotation constants.
 Leave Link  601 at Sun Mar 15 18:45:34 2015, MaxMem=    33554432 cpu:         0.1
 (Enter /opt/g09_D01_em64t/g09/l9999.exe)

 This type of calculation cannot be archived.


 One man practicing sportsmanship is far better than 50 preaching it.
 -- Knute K. Rockne
 Job cpu time:       0 days  0 hours  0 minutes  0.5 seconds.
 File lengths (MBytes):  RWF=      5 Int=      0 D2E=      0 Chk=      1 Scr=      1
 Normal termination of Gaussian 09 at Sun Mar 15 18:45:34 2015.
