 Entering Gaussian System, Link 0=g09
 Input=highmodel.gjf
 Output=highmodel.log
 Initial command:
 /opt/g09_D01_em64t/g09/l1.exe "/tmp/Gau-12516.inp" -scrdir="/tmp/"
 Entering Link 1 = /opt/g09_D01_em64t/g09/l1.exe PID=     12517.
  
 Copyright (c) 1988,1990,1992,1993,1995,1998,2003,2009,2013,
            Gaussian, Inc.  All Rights Reserved.
  
 This is part of the Gaussian(R) 09 program.  It is based on
 the Gaussian(R) 03 system (copyright 2003, Gaussian, Inc.),
 the Gaussian(R) 98 system (copyright 1998, Gaussian, Inc.),
 the Gaussian(R) 94 system (copyright 1995, Gaussian, Inc.),
 the Gaussian 92(TM) system (copyright 1992, Gaussian, Inc.),
 the Gaussian 90(TM) system (copyright 1990, Gaussian, Inc.),
 the Gaussian 88(TM) system (copyright 1988, Gaussian, Inc.),
 the Gaussian 86(TM) system (copyright 1986, Carnegie Mellon
 University), and the Gaussian 82(TM) system (copyright 1983,
 Carnegie Mellon University). Gaussian is a federally registered
 trademark of Gaussian, Inc.
  
 This software contains proprietary and confidential information,
 including trade secrets, belonging to Gaussian, Inc.
  
 This software is provided under written license and may be
 used, copied, transmitted, or stored only in accord with that
 written license.
  
 The following legend is applicable only to US Government
 contracts under FAR:
  
                    RESTRICTED RIGHTS LEGEND
  
 Use, reproduction and disclosure by the US Government is
 subject to restrictions as set forth in subparagraphs (a)
 and (c) of the Commercial Computer Software - Restricted
 Rights clause in FAR 52.227-19.
  
 Gaussian, Inc.
 340 Quinnipiac St., Bldg. 40, Wallingford CT 06492
  
  
 ---------------------------------------------------------------
 Warning -- This program may not be used in any manner that
 competes with the business of Gaussian, Inc. or will provide
 assistance to any competitor of Gaussian, Inc.  The licensee
 of this program is prohibited from giving any competitor of
 Gaussian, Inc. access to this program.  By using this program,
 the user acknowledges that Gaussian, Inc. is engaged in the
 business of creating and licensing software in the field of
 computational chemistry and represents and warrants to the
 licensee that it is not a competitor of Gaussian, Inc. and that
 it will not use this program in any manner prohibited above.
 ---------------------------------------------------------------
  

 Cite this work as:
 Gaussian 09, Revision D.01,
 M. J. Frisch, G. W. Trucks, H. B. Schlegel, G. E. Scuseria, 
 M. A. Robb, J. R. Cheeseman, G. Scalmani, V. Barone, B. Mennucci, 
 G. A. Petersson, H. Nakatsuji, M. Caricato, X. Li, H. P. Hratchian, 
 A. F. Izmaylov, J. Bloino, G. Zheng, J. L. Sonnenberg, M. Hada, 
 M. Ehara, K. Toyota, R. Fukuda, J. Hasegawa, M. Ishida, T. Nakajima, 
 Y. Honda, O. Kitao, H. Nakai, T. Vreven, J. A. Montgomery, Jr., 
 J. E. Peralta, F. Ogliaro, M. Bearpark, J. J. Heyd, E. Brothers, 
 K. N. Kudin, V. N. Staroverov, T. Keith, R. Kobayashi, J. Normand, 
 K. Raghavachari, A. Rendell, J. C. Burant, S. S. Iyengar, J. Tomasi, 
 M. Cossi, N. Rega, J. M. Millam, M. Klene, J. E. Knox, J. B. Cross, 
 V. Bakken, C. Adamo, J. Jaramillo, R. Gomperts, R. E. Stratmann, 
 O. Yazyev, A. J. Austin, R. Cammi, C. Pomelli, J. W. Ochterski, 
 R. L. Martin, K. Morokuma, V. G. Zakrzewski, G. A. Voth, 
 P. Salvador, J. J. Dannenberg, S. Dapprich, A. D. Daniels, 
 O. Farkas, J. B. Foresman, J. V. Ortiz, J. Cioslowski, 
 and D. J. Fox, Gaussian, Inc., Wallingford CT, 2013.
 
 ******************************************
 Gaussian 09:  EM64L-G09RevD.01 24-Apr-2013
                26-Mar-2015 
 ******************************************
 ----------------------------------------------------------------------
 #P force Test IOp(2/15=1,5/32=2,5/38=1) B3LYP/6-31G(D,P) TD(SINGLET,NS
 TATES=3,ROOT=1) iop(9/40=20)
 ----------------------------------------------------------------------
 1/10=7,30=1,38=1/1,3;
 2/12=2,15=1,17=6,18=5,40=1/2;
 3/5=1,6=6,7=101,11=9,16=1,25=1,30=1,71=1,74=-5/1,2,8,3;
 4//1;
 5/5=2,32=2,38=1/2;
 8/6=1,10=2,107=1,108=3/1;
 9/8=1,15=2,40=20,41=3,42=1,48=1,70=2/14;
 10/5=4/2;
 6/7=2,8=2,9=2,10=2,18=1/1;
 7/12=6,13=5,14=1,29=1/1,2,3,16;
 1/10=7,30=1/3;
 99//99;
 Leave Link    1 at Thu Mar 26 16:44:26 2015, MaxMem=           0 cpu:         0.0
 (Enter /opt/g09_D01_em64t/g09/l101.exe)
 ---------------------------------------------
 ch2nh2 Point 2 -- high level on model system.
 ---------------------------------------------
 Symbolic Z-matrix:
 Charge =  0 Multiplicity = 1
 O-O_3--0.834000      -0.36871  -2.19424   0. 
 H-H_-0.417000         0.59129  -2.19424   0. 
 H-H_-0.417000        -0.68916  -1.28931   0. 
 O-#6--0.834000       -2.34712   0.34173   0. 
 H-#6-0.417000        -1.38712   0.34173   0. 
 H-#6-0.417000        -2.66758   1.24666   0. 
 
 NAtoms=      6 NQM=        6 NQMF=       0 NMMI=      0 NMMIF=      0
                NMic=       0 NMicF=      0.
                    Isotopes and Nuclear Properties:
 (Nuclear quadrupole moments (NQMom) in fm**2, nuclear magnetic moments (NMagM)
  in nuclear magnetons)

  Atom         1           2           3           4           5           6
 IAtWgt=          16           1           1          16           1           1
 AtmWgt=  15.9949146   1.0078250   1.0078250  15.9949146   1.0078250   1.0078250
 NucSpn=           0           1           1           0           1           1
 AtZEff=   0.0000000   0.0000000   0.0000000   0.0000000   0.0000000   0.0000000
 NQMom=    0.0000000   0.0000000   0.0000000   0.0000000   0.0000000   0.0000000
 NMagM=    0.0000000   2.7928460   2.7928460   0.0000000   2.7928460   2.7928460
 AtZNuc=   8.0000000   1.0000000   1.0000000   8.0000000   1.0000000   1.0000000
 MM Charge=              0.0000 electrons
 MM Dipole moment (Debye):
    X=              2.5619    Y=              3.6251    Z=              0.0000  Tot=              4.4390
 MM Quadrupole moment (Debye-Ang):
   XX=             -2.8546   YY=             -3.4350   ZZ=              0.0000
   XY=             -8.4572   XZ=              0.0000   YZ=              0.0000
 MM Traceless Quadrupole moment (Debye-Ang):
   XX=             -0.7581   YY=             -1.3385   ZZ=              2.0965
   XY=             -8.4572   XZ=              0.0000   YZ=              0.0000
 MM Octapole moment (Debye-Ang**2):
  XXX=              8.3899  YYY=             20.6684  ZZZ=              0.0000  XYY=              2.9885
  XXY=              9.9759  XXZ=              0.0000  XZZ=              0.0000  YZZ=              0.0000
  YYZ=              0.0000  XYZ=              0.0000
 MM Hexadecapole moment (Debye-Ang**3):
 XXXX=            -12.1133 YYYY=            -36.0856 ZZZZ=              0.0000 XXXY=            -32.0291
 XXXZ=              0.0000 YYYX=            -35.2452 YYYZ=              0.0000 ZZZX=              0.0000
 ZZZY=              0.0000 XXYY=             22.3553 XXZZ=              0.0000 YYZZ=              0.0000
 XXYZ=              0.0000 YYXZ=              0.0000 ZZXY=              0.0000
 Leave Link  101 at Thu Mar 26 16:44:26 2015, MaxMem=    33554432 cpu:         0.1
 (Enter /opt/g09_D01_em64t/g09/l103.exe)

 GradGradGradGradGradGradGradGradGradGradGradGradGradGradGradGradGradGrad
 Berny optimization.
 Initialization pass.
 Trust Radius=3.00D-01 FncErr=1.00D-07 GrdErr=1.00D-07
 Number of steps in this run=      2 maximum allowed number of steps=      2.
 GradGradGradGradGradGradGradGradGradGradGradGradGradGradGradGradGradGrad

 Leave Link  103 at Thu Mar 26 16:44:26 2015, MaxMem=    33554432 cpu:         0.0
 (Enter /opt/g09_D01_em64t/g09/l202.exe)
                          Input orientation:                          
 ---------------------------------------------------------------------
 Center     Atomic      Atomic             Coordinates (Angstroms)
 Number     Number       Type             X           Y           Z
 ---------------------------------------------------------------------
      1          8    10081003       -0.368705   -2.194245    0.000000
      2          1    10011000        0.591295   -2.194245    0.000000
      3          1    10011000       -0.689160   -1.289309    0.000000
      4          8           6       -2.347122    0.341727    0.000000
      5          1           6       -1.387122    0.341727    0.000000
      6          1           6       -2.667577    1.246662    0.000000
 ---------------------------------------------------------------------
                    Distance matrix (angstroms):
                    1          2          3          4          5
     1  O    0.000000
     2  H    0.960000   0.000000
     3  H    0.960000   1.567952   0.000000
     4  O    3.216409   3.881423   2.325751   0.000000
     5  H    2.732823   3.216409   1.774099   0.960000   0.000000
     6  H    4.138194   4.739207   3.216409   0.960000   1.567952
                    6
     6  H    0.000000
 Symmetry turned off by external request.
 Stoichiometry    H4O2
 Framework group  CS[SG(H4O2)]
 Deg. of freedom     9
 Full point group                 CS      NOp   2
 Rotational constants (GHZ):    416.7917648      5.2904637      5.2241519
 Leave Link  202 at Thu Mar 26 16:44:26 2015, MaxMem=    33554432 cpu:         0.0
 (Enter /opt/g09_D01_em64t/g09/l301.exe)
 Standard basis: 6-31G(d,p) (6D, 7F)
 Ernie: Thresh=  0.10000D-02 Tol=  0.10000D-05 Strict=F.
    25 basis functions,    42 primitive gaussians,    25 cartesian basis functions
     5 alpha electrons        5 beta electrons
       nuclear repulsion energy         8.8119525365 Hartrees.
 Nuclear repulsion from inactive atom pairs=       -0.3247219173 Hartrees.
 IExCor=  402 DFT=T Ex+Corr=B3LYP ExCW=0 ScaHFX=  0.200000
 ScaDFX=  0.800000  0.720000  1.000000  0.810000 ScalE2=  1.000000  1.000000
 IRadAn=      0 IRanWt=     -1 IRanGd=            0 ICorTp=0 IEmpDi=  4
 NAtoms=    6 NActive=    3 NUniq=    3 SFac= 1.00D+00 NAtFMM=   60 NAOKFM=F Big=F
 Integral buffers will be    131072 words long.
 Regular integral format.
 Two-electron integral symmetry is turned off.
 Leave Link  301 at Thu Mar 26 16:44:26 2015, MaxMem=    33554432 cpu:         0.0
 (Enter /opt/g09_D01_em64t/g09/l302.exe)
 NPDir=0 NMtPBC=     1 NCelOv=     1 NCel=       1 NClECP=     1 NCelD=      1
         NCelK=      1 NCelE2=     1 NClLst=     1 CellRange=     0.0.
 One-electron integrals computed using PRISM.
 NBasis=    25 RedAO= T EigKep=  2.21D-02  NBF=    25
 NBsUse=    25 1.00D-06 EigRej= -1.00D+00 NBFU=    25
 Precomputing XC quadrature grid using
 IXCGrd= 4 IRadAn=           0 IRanWt=          -1 IRanGd=           0 AccXCQ= 0.00D+00.
 Generated NRdTot=       0 NPtTot=           0 NUsed=           0 NTot=          32
 NSgBfM=    25    25    25    25    25 MxSgAt=     3 MxSgA2=     3.
 Leave Link  302 at Thu Mar 26 16:44:26 2015, MaxMem=    33554432 cpu:         0.1
 (Enter /opt/g09_D01_em64t/g09/l308.exe)
 Leave Link  308 at Thu Mar 26 16:44:26 2015, MaxMem=    33554432 cpu:         0.0
 (Enter /opt/g09_D01_em64t/g09/l303.exe)
 DipDrv:  MaxL=1.
 Leave Link  303 at Thu Mar 26 16:44:26 2015, MaxMem=    33554432 cpu:         0.0
 (Enter /opt/g09_D01_em64t/g09/l401.exe)
 ExpMin= 1.61D-01 ExpMax= 5.48D+03 ExpMxC= 8.25D+02 IAcc=1 IRadAn=         1 AccDes= 0.00D+00
 Harris functional with IExCor=  402 and IRadAn=       1 diagonalized for initial guess.
 HarFok:  IExCor=  402 AccDes= 0.00D+00 IRadAn=         1 IDoV= 1 UseB2=F ITyADJ=14
 ICtDFT=  3500011 ScaDFX=  1.000000  1.000000  1.000000  1.000000
 FoFCou: FMM=F IPFlag=           0 FMFlag=      100000 FMFlg1=           0
         NFxFlg=           0 DoJE=T BraDBF=F KetDBF=T FulRan=T
         wScrn=  0.000000 ICntrl=     500 IOpCl=  0 I1Cent=   200000004 NGrid=           0
         NMat0=    1 NMatS0=      1 NMatT0=    0 NMatD0=    1 NMtDS0=    0 NMtDT0=    0
 Symmetry not used in FoFCou.
 Harris En= -76.7777486621520    
 JPrj=0 DoOrth=F DoCkMO=F.
 Leave Link  401 at Thu Mar 26 16:44:26 2015, MaxMem=    33554432 cpu:         0.1
 (Enter /opt/g09_D01_em64t/g09/l502.exe)
 Closed shell SCF:
 Using DIIS extrapolation, IDIIS=  1040.
 Two-electron integral symmetry not used.
 Keep R1 ints in memory in canonical form, NReq=933384.
 IVT=       20737 IEndB=       20737 NGot=    33554432 MDV=    33480721
 LenX=    33480721 LenY=    33479655
 Requested convergence on RMS density matrix=1.00D-08 within 128 cycles.
 Requested convergence on MAX density matrix=1.00D-06.
 Requested convergence on             energy=1.00D-06.
 No special actions if energy rises.
 FoFCou: FMM=F IPFlag=           0 FMFlag=           0 FMFlg1=           0
         NFxFlg=           0 DoJE=F BraDBF=F KetDBF=F FulRan=T
         wScrn=  0.000000 ICntrl=     600 IOpCl=  0 I1Cent=           0 NGrid=           0
         NMat0=    1 NMatS0=    325 NMatT0=    0 NMatD0=    1 NMtDS0=    0 NMtDT0=    0
 Symmetry not used in FoFCou.

 Cycle   1  Pass 1  IDiag  1:
 E= -76.6630005474089    
 DIIS: error= 5.97D-02 at cycle   1 NSaved=   1.
 NSaved= 1 IEnMin= 1 EnMin= -76.6630005474089     IErMin= 1 ErrMin= 5.97D-02
 ErrMax= 5.97D-02  0.00D+00 EMaxC= 1.00D-01 BMatC= 1.04D-01 BMatP= 1.04D-01
 IDIUse=3 WtCom= 4.03D-01 WtEn= 5.97D-01
 Coeff-Com:  0.100D+01
 Coeff-En:   0.100D+01
 Coeff:      0.100D+01
 Gap=     0.211 Goal=   None    Shift=    0.000
 GapD=    0.211 DampG=1.000 DampE=0.500 DampFc=0.5000 IDamp=-1.
 Damping current iteration by 5.00D-01
 RMSDP=2.23D-02 MaxDP=2.27D-01              OVMax= 1.97D-01

 Cycle   2  Pass 1  IDiag  1:
 E= -76.6893388830792     Delta-E=       -0.026338335670 Rises=F Damp=T
 DIIS: error= 1.30D-02 at cycle   2 NSaved=   2.
 NSaved= 2 IEnMin= 2 EnMin= -76.6893388830792     IErMin= 2 ErrMin= 1.30D-02
 ErrMax= 1.30D-02  0.00D+00 EMaxC= 1.00D-01 BMatC= 6.21D-03 BMatP= 1.04D-01
 IDIUse=3 WtCom= 8.70D-01 WtEn= 1.30D-01
 Coeff-Com:  0.182D+00 0.818D+00
 Coeff-En:   0.298D+00 0.702D+00
 Coeff:      0.197D+00 0.803D+00
 Gap=     0.340 Goal=   None    Shift=    0.000
 RMSDP=2.77D-03 MaxDP=3.87D-02 DE=-2.63D-02 OVMax= 1.15D-01

 Cycle   3  Pass 1  IDiag  1:
 E= -76.7397213324719     Delta-E=       -0.050382449393 Rises=F Damp=F
 DIIS: error= 1.63D-03 at cycle   3 NSaved=   3.
 NSaved= 3 IEnMin= 3 EnMin= -76.7397213324719     IErMin= 3 ErrMin= 1.63D-03
 ErrMax= 1.63D-03  0.00D+00 EMaxC= 1.00D-01 BMatC= 9.98D-05 BMatP= 6.21D-03
 IDIUse=3 WtCom= 9.84D-01 WtEn= 1.63D-02
 Coeff-Com:  0.261D-01-0.936D-02 0.983D+00
 Coeff-En:   0.000D+00 0.000D+00 0.100D+01
 Coeff:      0.257D-01-0.921D-02 0.984D+00
 Gap=     0.352 Goal=   None    Shift=    0.000
 RMSDP=2.38D-04 MaxDP=2.61D-03 DE=-5.04D-02 OVMax= 2.15D-03

 Cycle   4  Pass 1  IDiag  1:
 E= -76.7397861501112     Delta-E=       -0.000064817639 Rises=F Damp=F
 DIIS: error= 2.65D-04 at cycle   4 NSaved=   4.
 NSaved= 4 IEnMin= 4 EnMin= -76.7397861501112     IErMin= 4 ErrMin= 2.65D-04
 ErrMax= 2.65D-04  0.00D+00 EMaxC= 1.00D-01 BMatC= 2.29D-06 BMatP= 9.98D-05
 IDIUse=3 WtCom= 9.97D-01 WtEn= 2.65D-03
 Coeff-Com:  0.498D-02-0.158D-01 0.229D+00 0.782D+00
 Coeff-En:   0.000D+00 0.000D+00 0.000D+00 0.100D+01
 Coeff:      0.497D-02-0.158D-01 0.228D+00 0.783D+00
 Gap=     0.353 Goal=   None    Shift=    0.000
 RMSDP=2.79D-05 MaxDP=2.35D-04 DE=-6.48D-05 OVMax= 3.01D-04

 Cycle   5  Pass 1  IDiag  1:
 E= -76.7397877631573     Delta-E=       -0.000001613046 Rises=F Damp=F
 DIIS: error= 3.97D-05 at cycle   5 NSaved=   5.
 NSaved= 5 IEnMin= 5 EnMin= -76.7397877631573     IErMin= 5 ErrMin= 3.97D-05
 ErrMax= 3.97D-05  0.00D+00 EMaxC= 1.00D-01 BMatC= 4.45D-08 BMatP= 2.29D-06
 IDIUse=1 WtCom= 1.00D+00 WtEn= 0.00D+00
 Coeff-Com:  0.632D-03-0.696D-03 0.389D-02 0.158D-01 0.980D+00
 Coeff:      0.632D-03-0.696D-03 0.389D-02 0.158D-01 0.980D+00
 Gap=     0.353 Goal=   None    Shift=    0.000
 RMSDP=6.31D-06 MaxDP=7.59D-05 DE=-1.61D-06 OVMax= 5.05D-05

 Cycle   6  Pass 1  IDiag  1:
 E= -76.7397877960670     Delta-E=       -0.000000032910 Rises=F Damp=F
 DIIS: error= 7.09D-07 at cycle   6 NSaved=   6.
 NSaved= 6 IEnMin= 6 EnMin= -76.7397877960670     IErMin= 6 ErrMin= 7.09D-07
 ErrMax= 7.09D-07  0.00D+00 EMaxC= 1.00D-01 BMatC= 1.10D-11 BMatP= 4.45D-08
 IDIUse=1 WtCom= 1.00D+00 WtEn= 0.00D+00
 Coeff-Com: -0.282D-04 0.346D-04-0.553D-03-0.244D-02-0.321D-01 0.104D+01
 Coeff:     -0.282D-04 0.346D-04-0.553D-03-0.244D-02-0.321D-01 0.104D+01
 Gap=     0.353 Goal=   None    Shift=    0.000
 RMSDP=1.51D-07 MaxDP=1.82D-06 DE=-3.29D-08 OVMax= 1.52D-06

 Cycle   7  Pass 1  IDiag  1:
 E= -76.7397877960790     Delta-E=       -0.000000000012 Rises=F Damp=F
 DIIS: error= 1.57D-07 at cycle   7 NSaved=   7.
 NSaved= 7 IEnMin= 7 EnMin= -76.7397877960790     IErMin= 7 ErrMin= 1.57D-07
 ErrMax= 1.57D-07  0.00D+00 EMaxC= 1.00D-01 BMatC= 5.54D-13 BMatP= 1.10D-11
 IDIUse=1 WtCom= 1.00D+00 WtEn= 0.00D+00
 Coeff-Com: -0.925D-05 0.106D-04-0.150D-03-0.572D-03-0.115D-01 0.248D+00
 Coeff-Com:  0.765D+00
 Coeff:     -0.925D-05 0.106D-04-0.150D-03-0.572D-03-0.115D-01 0.248D+00
 Coeff:      0.765D+00
 Gap=     0.353 Goal=   None    Shift=    0.000
 RMSDP=2.56D-08 MaxDP=1.58D-07 DE=-1.20D-11 OVMax= 3.05D-07

 Cycle   8  Pass 1  IDiag  1:
 E= -76.7397877960796     Delta-E=       -0.000000000001 Rises=F Damp=F
 DIIS: error= 1.94D-08 at cycle   8 NSaved=   8.
 NSaved= 8 IEnMin= 8 EnMin= -76.7397877960796     IErMin= 8 ErrMin= 1.94D-08
 ErrMax= 1.94D-08  0.00D+00 EMaxC= 1.00D-01 BMatC= 1.15D-14 BMatP= 5.54D-13
 IDIUse=1 WtCom= 1.00D+00 WtEn= 0.00D+00
 Coeff-Com: -0.290D-06 0.211D-06-0.921D-07 0.391D-04-0.498D-03-0.103D-01
 Coeff-Com:  0.103D+00 0.907D+00
 Coeff:     -0.290D-06 0.211D-06-0.921D-07 0.391D-04-0.498D-03-0.103D-01
 Coeff:      0.103D+00 0.907D+00
 Gap=     0.353 Goal=   None    Shift=    0.000
 RMSDP=3.36D-09 MaxDP=2.37D-08 DE=-5.83D-13 OVMax= 3.90D-08

 SCF Done:  E(RB3LYP) =  -76.7397877961     A.U. after    8 cycles
            NFock=  8  Conv=0.34D-08     -V/T= 2.0119
 KE= 7.583648850241D+01 PE=-1.989054104748D+02 EE= 3.751718163975D+01
 Leave Link  502 at Thu Mar 26 16:44:27 2015, MaxMem=    33554432 cpu:         0.7
 (Enter /opt/g09_D01_em64t/g09/l801.exe)
 DoSCS=F DFT=T ScalE2(SS,OS)=  1.000000  1.000000
 ExpMin= 1.61D-01 ExpMax= 5.48D+03 ExpMxC= 8.25D+02 IAcc=3 IRadAn=         5 AccDes= 0.00D+00
 HarFok:  IExCor=  205 AccDes= 0.00D+00 IRadAn=         5 IDoV=-2 UseB2=F ITyADJ=14
 ICtDFT= 12500011 ScaDFX=  1.000000  1.000000  1.000000  1.000000
 Largest valence mixing into a core orbital is  2.73D-05
 Largest core mixing into a valence orbital is  6.16D-06
 Range of M.O.s used for correlation:     2    25
 NBasis=    25 NAE=     5 NBE=     5 NFC=     1 NFV=     0
 NROrb=     24 NOA=     4 NOB=     4 NVA=    20 NVB=    20
 Leave Link  801 at Thu Mar 26 16:44:27 2015, MaxMem=    33554432 cpu:         0.1
 (Enter /opt/g09_D01_em64t/g09/l914.exe)
 RHF ground state
 MDV=    33554432 DFT=T DoStab=F Mixed=T DoRPA=T DoScal=F NonHer=T
 Keep R1, R2, and R3 ints in memory in canonical form, NReq=1106670.
 FoFCou: FMM=F IPFlag=           0 FMFlag=           0 FMFlg1=           0
         NFxFlg=           0 DoJE=F BraDBF=F KetDBF=F FulRan=T
         wScrn=  0.000000 ICntrl=     600 IOpCl=  0 I1Cent=           0 NGrid=           0
         NMat0=    1 NMatS0=    325 NMatT0=    0 NMatD0=    1 NMtDS0=    0 NMtDT0=    0
 Symmetry not used in FoFCou.
 Making orbital integer symmetry assigments:
    12 initial guesses have been made.
 Convergence on wavefunction:    0.000001000000000
 Davidson Disk Diagonalization:  ConvIn= 1.00D-06 SkipCon=T Conv= 1.00D-06.
 Max sub-space:   200 roots to seek:    12 dimension of matrix:          160
 Iteration     1 Dimension    12 NMult     0 NNew     12
 CISAX will form    12 AO SS matrices at one time.
 NMat=    12 NSing=    12 JSym2X= 0.
 New state      2 was old state      3
 New state      3 was old state      2
 Excitation Energies [eV] at current iteration:
 Root      1 :     7.944989905513204
 Root      2 :     9.982032794656345
 Root      3 :    10.258845559932320
 Root      4 :    12.456197734509330
 Root      5 :    14.852684208933060
 Root      6 :    18.913676452334690
 Root      7 :    26.670744137118730
 Root      8 :    27.656006700461310
 Root      9 :    28.060686155899120
 Root     10 :    29.484497565772460
 Root     11 :    30.991698366805360
 Root     12 :    31.625405325005730
 Iteration     2 Dimension    18 NMult    12 NNew      6
 CISAX will form     6 AO SS matrices at one time.
 NMat=     6 NSing=     6 JSym2X= 0.
 Root      1 not converged, maximum delta is    0.013598232713121
 Root      2 not converged, maximum delta is    0.016804666275916
 Root      3 not converged, maximum delta is    0.034859752909109
 Excitation Energies [eV] at current iteration:
 Root      1 :     7.890885221500572   Change is   -0.054104684012631
 Root      2 :     9.958813908415026   Change is   -0.023218886241319
 Root      3 :    10.134689181005710   Change is   -0.124156378926610
 Iteration     3 Dimension    24 NMult    18 NNew      6
 CISAX will form     6 AO SS matrices at one time.
 NMat=     6 NSing=     6 JSym2X= 0.
 Root      1 not converged, maximum delta is    0.001060618334566
 Root      2 not converged, maximum delta is    0.000170208660135
 Root      3 not converged, maximum delta is    0.004302157099464
 Excitation Energies [eV] at current iteration:
 Root      1 :     7.890542441842911   Change is   -0.000342779657662
 Root      2 :     9.958770911719018   Change is   -0.000042996696007
 Root      3 :    10.132090118872510   Change is   -0.002599062133198
 Iteration     4 Dimension    30 NMult    24 NNew      6
 CISAX will form     6 AO SS matrices at one time.
 NMat=     6 NSing=     6 JSym2X= 0.
 Root      1 not converged, maximum delta is    0.000074403836736
 Root      2 not converged, maximum delta is    0.000015196450819
 Root      3 not converged, maximum delta is    0.000408410091083
 Excitation Energies [eV] at current iteration:
 Root      1 :     7.890541626204556   Change is   -0.000000815638355
 Root      2 :     9.958770820154728   Change is   -0.000000091564292
 Root      3 :    10.132061041061880   Change is   -0.000029077810634
 Iteration     5 Dimension    36 NMult    30 NNew      6
 CISAX will form     6 AO SS matrices at one time.
 NMat=     6 NSing=     6 JSym2X= 0.
 Root      1 not converged, maximum delta is    0.000002311781552
 Root      2 has converged.
 Root      3 not converged, maximum delta is    0.000039437802240
 Excitation Energies [eV] at current iteration:
 Root      1 :     7.890541623870534   Change is   -0.000000002334022
 Root      2 :     9.958770819940549   Change is   -0.000000000214179
 Root      3 :    10.132060595696260   Change is   -0.000000445365616
 Iteration     6 Dimension    40 NMult    36 NNew      4
 CISAX will form     4 AO SS matrices at one time.
 NMat=     4 NSing=     4 JSym2X= 0.
 Root      1 has converged.
 Root      2 has converged.
 Root      3 not converged, maximum delta is    0.000003563297043
 Excitation Energies [eV] at current iteration:
 Root      1 :     7.890541623865938   Change is   -0.000000000004595
 Root      2 :     9.958770819939591   Change is   -0.000000000000958
 Root      3 :    10.132060588524930   Change is   -0.000000007171337
 Iteration     7 Dimension    42 NMult    40 NNew      2
 CISAX will form     2 AO SS matrices at one time.
 NMat=     2 NSing=     2 JSym2X= 0.
 Root      1 has converged.
 Root      2 has converged.
 Root      3 has converged.
 Excitation Energies [eV] at current iteration:
 Root      1 :     7.890541623865938   Change is    0.000000000000000
 Root      2 :     9.958770819939632   Change is    0.000000000000041
 Root      3 :    10.132060588508150   Change is   -0.000000000016771
 Convergence achieved on expansion vectors.
 ***********************************************************************
 Excited states from <AA,BB:AA,BB> singles matrix:
 ***********************************************************************
 
 1PDM for each excited state written to RWF  633
 Ground to excited state transition densities written to RWF  633
 Ground to excited state transition electric dipole moments (Au):
       state          X           Y           Z        Dip. S.      Osc.
         1         0.0000      0.0000      0.2660      0.0708      0.0137
         2         0.0000      0.0000     -0.0113      0.0001      0.0000
         3         0.3204      0.4855      0.0000      0.3384      0.0840
 Ground to excited state transition velocity dipole moments (Au):
       state          X           Y           Z        Dip. S.      Osc.
         1         0.0000      0.0000     -0.1674      0.0280      0.0644
         2         0.0000      0.0000      0.0072      0.0001      0.0001
         3        -0.1624     -0.2400      0.0000      0.0840      0.1504
 Ground to excited state transition magnetic dipole moments (Au):
       state          X           Y           Z
         1         0.4795      0.0200      0.0000
         2        -0.2013     -0.2490      0.0000
         3         0.0000      0.0000     -0.4909
 Ground to excited state transition velocity quadrupole moments (Au):
       state          XX          YY          ZZ          XY          XZ          YZ
         1         0.0000      0.0000      0.0000      0.0000      0.0332      0.5644
         2         0.0000      0.0000      0.0000      0.0000      0.2033     -0.1704
         3         0.0051      1.6776     -0.0049      0.7388      0.0000      0.0000
 <0|del|b> * <b|rxdel|0> + <0|del|b> * <b|delr+rdel|0>
 Rotatory Strengths (R) in cgs (10**-40 erg-esu-cm/Gauss)
       state          XX          YY          ZZ    R(velocity)    E-M Angle
         1         0.0000      0.0000      0.0000      0.0000       90.00
         2         0.0000      0.0000      0.0000      0.0000       90.00
         3         0.0000      0.0000      0.0000      0.0000       90.00
 1/2[<0|r|b>*<b|rxdel|0> + (<0|rxdel|b>*<b|r|0>)*]
 Rotatory Strengths (R) in cgs (10**-40 erg-esu-cm/Gauss)
       state          XX          YY          ZZ     R(length)
         1         0.0000      0.0000      0.0000      0.0000
         2         0.0000      0.0000      0.0000      0.0000
         3         0.0000      0.0000      0.0000      0.0000
  1/2[<0|del|b>*<b|r|0> + (<0|r|b>*<b|del|0>)*] (Au)
       state          X           Y           Z        Dip. S.   Osc.(frdel)
         1         0.0000      0.0000     -0.0445      0.0445      0.0297
         2         0.0000      0.0000     -0.0001      0.0001      0.0001
         3        -0.0520     -0.1165      0.0000      0.1686      0.1124

 Excitation energies and oscillator strengths:
 
 Excited state symmetry could not be determined.
 Excited State   1:      Singlet-?Sym    7.8905 eV  157.13 nm  f=0.0137  <S**2>=0.000
       2 ->  6         0.00000
       2 ->  7         0.00000
       2 ->  8         0.00000
       2 ->  9         0.00000
       2 -> 10         0.00000
       2 -> 11         0.00631
       2 -> 12         0.00000
       2 -> 13         0.00000
       2 -> 14         0.00016
       2 -> 15         0.00000
       2 -> 16        -0.00329
       2 -> 17         0.00000
       2 -> 18         0.00000
       2 -> 19         0.00000
       2 -> 20         0.00091
       2 -> 21         0.00000
       2 -> 22         0.00000
       2 -> 23         0.00000
       2 -> 24         0.00000
       2 -> 25         0.00000
       3 ->  6         0.00000
       3 ->  7         0.00000
       3 ->  8         0.00000
       3 ->  9         0.00000
       3 -> 10         0.00000
       3 -> 11        -0.00007
       3 -> 12         0.00000
       3 -> 13         0.00000
       3 -> 14        -0.00627
       3 -> 15         0.00000
       3 -> 16         0.00005
       3 -> 17         0.00000
       3 -> 18         0.00000
       3 -> 19         0.00000
       3 -> 20         0.00001
       3 -> 21        -0.00171
       3 -> 22         0.00000
       3 -> 23         0.00000
       3 -> 24         0.00000
       3 -> 25         0.00000
       4 ->  6         0.00000
       4 ->  7         0.00000
       4 ->  8         0.00000
       4 ->  9         0.00000
       4 -> 10         0.00000
       4 -> 11        -0.00280
       4 -> 12         0.00000
       4 -> 13         0.00000
       4 -> 14        -0.00006
       4 -> 15         0.00000
       4 -> 16        -0.00531
       4 -> 17         0.00000
       4 -> 18         0.00000
       4 -> 19         0.00000
       4 -> 20         0.00156
       4 -> 21        -0.00011
       4 -> 22         0.00000
       4 -> 23         0.00000
       4 -> 24         0.00000
       4 -> 25         0.00000
       5 ->  6         0.70714
       5 ->  7         0.00295
       5 ->  8         0.00081
       5 ->  9        -0.00949
       5 -> 10         0.00939
       5 -> 11         0.00000
       5 -> 12         0.00044
       5 -> 13        -0.00770
       5 -> 14         0.00000
       5 -> 15        -0.00553
       5 -> 16         0.00000
       5 -> 17         0.00007
       5 -> 18         0.00504
       5 -> 19         0.00007
       5 -> 20         0.00000
       5 -> 21         0.00000
       5 -> 22         0.00029
       5 -> 23         0.00100
       5 -> 24         0.00001
       5 -> 25        -0.00082
       2 <-  6         0.00000
       2 <-  7         0.00000
       2 <-  8         0.00000
       2 <-  9         0.00000
       2 <- 10         0.00000
       2 <- 11         0.00286
       2 <- 12         0.00000
       2 <- 13         0.00000
       2 <- 14         0.00012
       2 <- 15         0.00000
       2 <- 16        -0.00257
       2 <- 17         0.00000
       2 <- 18         0.00000
       2 <- 19         0.00000
       2 <- 20         0.00100
       2 <- 21         0.00002
       2 <- 22         0.00000
       2 <- 23         0.00000
       2 <- 24         0.00000
       2 <- 25         0.00000
       3 <-  6         0.00000
       3 <-  7         0.00000
       3 <-  8         0.00000
       3 <-  9         0.00000
       3 <- 10         0.00000
       3 <- 11         0.00019
       3 <- 12         0.00000
       3 <- 13         0.00000
       3 <- 14        -0.00525
       3 <- 15         0.00000
       3 <- 16         0.00007
       3 <- 17         0.00000
       3 <- 18         0.00000
       3 <- 19         0.00000
       3 <- 20         0.00000
       3 <- 21        -0.00154
       3 <- 22         0.00000
       3 <- 23         0.00000
       3 <- 24         0.00000
       3 <- 25         0.00000
       4 <-  6         0.00000
       4 <-  7         0.00000
       4 <-  8         0.00000
       4 <-  9         0.00000
       4 <- 10         0.00000
       4 <- 11        -0.00608
       4 <- 12         0.00000
       4 <- 13         0.00000
       4 <- 14         0.00000
       4 <- 15         0.00000
       4 <- 16        -0.00407
       4 <- 17         0.00000
       4 <- 18         0.00000
       4 <- 19         0.00000
       4 <- 20         0.00104
       4 <- 21        -0.00008
       4 <- 22         0.00000
       4 <- 23         0.00000
       4 <- 24         0.00000
       4 <- 25         0.00000
       5 <-  6        -0.01642
       5 <-  7         0.00024
       5 <-  8        -0.00041
       5 <-  9         0.00652
       5 <- 10         0.00487
       5 <- 11         0.00000
       5 <- 12        -0.00008
       5 <- 13         0.00305
       5 <- 14         0.00000
       5 <- 15        -0.00285
       5 <- 16         0.00000
       5 <- 17         0.00005
       5 <- 18         0.00491
       5 <- 19         0.00002
       5 <- 20         0.00000
       5 <- 21         0.00000
       5 <- 22         0.00007
       5 <- 23        -0.00053
       5 <- 24        -0.00001
       5 <- 25        -0.00092
 This state for optimization and/or second-order correction.
 Total Energy, E(TD-HF/TD-KS) =  -76.4498157144    
 Copying the excited state density for this state as the 1-particle RhoCI density.
 
 Excited state symmetry could not be determined.
 Excited State   2:      Singlet-?Sym    9.9588 eV  124.50 nm  f=0.0000  <S**2>=0.000
       2 ->  6         0.00000
       2 ->  7         0.00000
       2 ->  8         0.00000
       2 ->  9         0.00000
       2 -> 10         0.00000
       2 -> 11        -0.00027
       2 -> 12         0.00000
       2 -> 13         0.00000
       2 -> 14         0.00414
       2 -> 15         0.00000
       2 -> 16         0.00012
       2 -> 17         0.00000
       2 -> 18         0.00000
       2 -> 19         0.00000
       2 -> 20        -0.00002
       2 -> 21         0.00061
       2 -> 22         0.00000
       2 -> 23         0.00000
       2 -> 24         0.00000
       2 -> 25         0.00000
       3 ->  6         0.00000
       3 ->  7         0.00000
       3 ->  8         0.00000
       3 ->  9         0.00000
       3 -> 10         0.00000
       3 -> 11        -0.00197
       3 -> 12         0.00000
       3 -> 13         0.00000
       3 -> 14         0.00024
       3 -> 15         0.00000
       3 -> 16         0.00099
       3 -> 17         0.00000
       3 -> 18         0.00000
       3 -> 19         0.00000
       3 -> 20         0.00123
       3 -> 21         0.00007
       3 -> 22         0.00000
       3 -> 23         0.00000
       3 -> 24         0.00000
       3 -> 25         0.00000
       4 ->  6         0.00000
       4 ->  7         0.00000
       4 ->  8         0.00000
       4 ->  9         0.00000
       4 -> 10         0.00000
       4 -> 11         0.00012
       4 -> 12         0.00000
       4 -> 13         0.00000
       4 -> 14        -0.00093
       4 -> 15         0.00000
       4 -> 16         0.00024
       4 -> 17         0.00000
       4 -> 18         0.00000
       4 -> 19         0.00000
       4 -> 20        -0.00010
       4 -> 21        -0.00169
       4 -> 22         0.00000
       4 -> 23         0.00000
       4 -> 24         0.00000
       4 -> 25         0.00000
       5 ->  6        -0.00298
       5 ->  7         0.70666
       5 ->  8         0.01855
       5 ->  9         0.00078
       5 -> 10         0.00011
       5 -> 11         0.00000
       5 -> 12         0.01814
       5 -> 13         0.00039
       5 -> 14         0.00000
       5 -> 15         0.00022
       5 -> 16         0.00000
       5 -> 17         0.00100
       5 -> 18        -0.00024
       5 -> 19         0.00164
       5 -> 20         0.00000
       5 -> 21         0.00000
       5 -> 22        -0.00001
       5 -> 23        -0.00004
       5 -> 24         0.00067
       5 -> 25         0.00004
       2 <-  6         0.00000
       2 <-  7         0.00000
       2 <-  8         0.00000
       2 <-  9         0.00000
       2 <- 10         0.00000
       2 <- 11        -0.00012
       2 <- 12         0.00000
       2 <- 13         0.00000
       2 <- 14         0.00294
       2 <- 15         0.00000
       2 <- 16         0.00009
       2 <- 17         0.00000
       2 <- 18         0.00000
       2 <- 19         0.00000
       2 <- 20        -0.00001
       2 <- 21         0.00104
       2 <- 22         0.00000
       2 <- 23         0.00000
       2 <- 24         0.00000
       2 <- 25         0.00000
       3 <-  6         0.00000
       3 <-  7         0.00000
       3 <-  8         0.00000
       3 <-  9         0.00000
       3 <- 10         0.00000
       3 <- 11         0.00469
       3 <- 12         0.00000
       3 <- 13         0.00000
       3 <- 14         0.00018
       3 <- 15         0.00000
       3 <- 16         0.00142
       3 <- 17         0.00000
       3 <- 18         0.00000
       3 <- 19         0.00000
       3 <- 20         0.00091
       3 <- 21         0.00006
       3 <- 22         0.00000
       3 <- 23         0.00000
       3 <- 24         0.00000
       3 <- 25         0.00000
       4 <-  6         0.00000
       4 <-  7         0.00000
       4 <-  8         0.00000
       4 <-  9         0.00000
       4 <- 10         0.00000
       4 <- 11         0.00023
       4 <- 12         0.00000
       4 <- 13         0.00000
       4 <- 14         0.00042
       4 <- 15         0.00000
       4 <- 16         0.00017
       4 <- 17         0.00000
       4 <- 18         0.00000
       4 <- 19         0.00000
       4 <- 20        -0.00007
       4 <- 21        -0.00125
       4 <- 22         0.00000
       4 <- 23         0.00000
       4 <- 24         0.00000
       4 <- 25         0.00000
       5 <-  6         0.00033
       5 <-  7        -0.00621
       5 <-  8        -0.00251
       5 <-  9        -0.00030
       5 <- 10        -0.00024
       5 <- 11         0.00000
       5 <- 12        -0.00120
       5 <- 13        -0.00014
       5 <- 14         0.00000
       5 <- 15         0.00011
       5 <- 16         0.00000
       5 <- 17         0.00034
       5 <- 18        -0.00020
       5 <- 19        -0.00008
       5 <- 20         0.00000
       5 <- 21         0.00000
       5 <- 22        -0.00001
       5 <- 23         0.00001
       5 <- 24        -0.00062
       5 <- 25         0.00004
 
 Excited state symmetry could not be determined.
 Excited State   3:      Singlet-?Sym   10.1321 eV  122.37 nm  f=0.0840  <S**2>=0.000
       2 ->  6        -0.02105
       2 ->  7         0.00114
       2 ->  8        -0.00031
       2 ->  9         0.00891
       2 -> 10         0.00198
       2 -> 11         0.00000
       2 -> 12         0.00004
       2 -> 13         0.00674
       2 -> 14         0.00000
       2 -> 15         0.00311
       2 -> 16         0.00000
       2 -> 17         0.00003
       2 -> 18         0.00034
       2 -> 19        -0.00002
       2 -> 20         0.00000
       2 -> 21         0.00000
       2 -> 22        -0.00078
       2 -> 23        -0.00155
       2 -> 24        -0.00001
       2 -> 25        -0.00017
       3 ->  6         0.00607
       3 ->  7         0.07282
       3 ->  8         0.01234
       3 ->  9        -0.00055
       3 -> 10         0.00015
       3 -> 11         0.00000
       3 -> 12         0.01163
       3 -> 13         0.00024
       3 -> 14         0.00000
       3 -> 15        -0.00021
       3 -> 16         0.00000
       3 -> 17        -0.00149
       3 -> 18        -0.00016
       3 -> 19        -0.00082
       3 -> 20         0.00000
       3 -> 21         0.00000
       3 -> 22         0.00008
       3 -> 23        -0.00001
       3 -> 24         0.00113
       3 -> 25         0.00001
       4 ->  6         0.70296
       4 ->  7         0.00149
       4 ->  8         0.00004
       4 ->  9        -0.00182
       4 -> 10        -0.01181
       4 -> 11         0.00000
       4 -> 12         0.00067
       4 -> 13        -0.00491
       4 -> 14         0.00000
       4 -> 15        -0.00438
       4 -> 16         0.00000
       4 -> 17        -0.00003
       4 -> 18        -0.00224
       4 -> 19        -0.00020
       4 -> 20         0.00000
       4 -> 21         0.00000
       4 -> 22         0.00008
       4 -> 23         0.00053
       4 -> 24         0.00011
       4 -> 25         0.00031
       5 ->  6         0.00000
       5 ->  7         0.00000
       5 ->  8         0.00000
       5 ->  9         0.00000
       5 -> 10         0.00000
       5 -> 11         0.02337
       5 -> 12         0.00000
       5 -> 13         0.00000
       5 -> 14        -0.00058
       5 -> 15         0.00000
       5 -> 16         0.00186
       5 -> 17         0.00000
       5 -> 18         0.00000
       5 -> 19         0.00000
       5 -> 20         0.00121
       5 -> 21        -0.00018
       5 -> 22         0.00000
       5 -> 23         0.00000
       5 -> 24         0.00000
       5 -> 25         0.00000
       2 <-  6        -0.00954
       2 <-  7         0.00052
       2 <-  8        -0.00019
       2 <-  9         0.00472
       2 <- 10         0.00255
       2 <- 11         0.00000
       2 <- 12         0.00001
       2 <- 13         0.00442
       2 <- 14         0.00000
       2 <- 15         0.00226
       2 <- 16         0.00000
       2 <- 17         0.00001
       2 <- 18         0.00009
       2 <- 19         0.00000
       2 <- 20         0.00000
       2 <- 21         0.00000
       2 <- 22        -0.00080
       2 <- 23        -0.00104
       2 <- 24        -0.00001
       2 <- 25        -0.00053
       3 <-  6         0.00085
       3 <-  7         0.01793
       3 <-  8         0.00534
       3 <-  9        -0.00019
       3 <- 10        -0.00011
       3 <- 11         0.00000
       3 <- 12         0.00667
       3 <- 13         0.00021
       3 <- 14         0.00000
       3 <- 15        -0.00017
       3 <- 16         0.00000
       3 <- 17        -0.00129
       3 <- 18        -0.00011
       3 <- 19        -0.00090
       3 <- 20         0.00000
       3 <- 21         0.00000
       3 <- 22         0.00006
       3 <- 23        -0.00002
       3 <- 24         0.00084
       3 <- 25         0.00003
       4 <-  6        -0.01921
       4 <-  7        -0.00001
       4 <-  8        -0.00063
       4 <-  9         0.00684
       4 <- 10        -0.00303
       4 <- 11         0.00000
       4 <- 12         0.00003
       4 <- 13         0.00318
       4 <- 14         0.00000
       4 <- 15        -0.00231
       4 <- 16         0.00000
       4 <- 17        -0.00002
       4 <- 18        -0.00038
       4 <- 19        -0.00018
       4 <- 20         0.00000
       4 <- 21         0.00000
       4 <- 22         0.00018
       4 <- 23        -0.00060
       4 <- 24         0.00008
       4 <- 25        -0.00032
       5 <-  6         0.00000
       5 <-  7         0.00000
       5 <-  8         0.00000
       5 <-  9         0.00000
       5 <- 10         0.00000
       5 <- 11         0.01093
       5 <- 12         0.00000
       5 <- 13         0.00000
       5 <- 14        -0.00038
       5 <- 15         0.00000
       5 <- 16         0.00200
       5 <- 17         0.00000
       5 <- 18         0.00000
       5 <- 19         0.00000
       5 <- 20         0.00063
       5 <- 21        -0.00014
       5 <- 22         0.00000
       5 <- 23         0.00000
       5 <- 24         0.00000
       5 <- 25         0.00000
 SavETr:  write IOETrn=   770 NScale= 10 NData=  16 NLR=1 NState=    3 LETran=      64.
 The selected state is a singlet
 CISAX will form     1 AO SS matrices at one time.
 NMat=     1 NSing=     1 JSym2X= 0.
 CISAX will form     1 AO SS matrices at one time.
 NMat=     1 NSing=     1 JSym2X= 0.
 Leave Link  914 at Thu Mar 26 16:44:29 2015, MaxMem=    33554432 cpu:         2.0
 (Enter /opt/g09_D01_em64t/g09/l1002.exe)
 Minotr:  Closed shell wavefunction.
          Computing CIS/TD-HF/TD-KS derivatives.
          Using Z-Vector for PSCF gradient.
          Skipping F1 and S1 gradient terms here.
          IDoAtm=111222
          Frozen-core window.
          Direct CPHF calculation.
          Differentiating once with respect to electric field.
                with respect to dipole field.
          Differentiating once with respect to nuclear coordinates.
          Requested convergence is 1.0D-10 RMS, and 1.0D-09 maximum.
          NewPWx=F KeepS1=T KeepF1=T KeepIn=F MapXYZ=T SortEE=T KeepMc=T.
          MDV=      33554344 using IRadAn=       0.
 Using stored XC quadrature information.
 Keep R1 ints in memory in canonical form, NReq=913344.
 FoFCou: FMM=F IPFlag=           0 FMFlag=           0 FMFlg1=           0
         NFxFlg=           0 DoJE=F BraDBF=F KetDBF=F FulRan=T
         wScrn=  0.000000 ICntrl=     600 IOpCl=  0 I1Cent=           0 NGrid=           0
         NMat0=    1 NMatS0=    325 NMatT0=    0 NMatD0=    1 NMtDS0=    0 NMtDT0=    0
 Symmetry not used in FoFCou.
          Solving linear equations separately, MaxMat=       0.
          There are     1 degrees of freedom in the 1st order CPHF.  IDoFFX=0 NUNeed=     1.
 LinEq1:  Iter=  0 NonCon=     1 RMS=1.06D-01 Max=6.25D-01 NDo=     1
 AX will form     1 AO Fock derivatives at one time.
 LinEq1:  Iter=  1 NonCon=     1 RMS=1.67D-02 Max=1.05D-01 NDo=     1
 LinEq1:  Iter=  2 NonCon=     1 RMS=2.74D-03 Max=1.39D-02 NDo=     1
 LinEq1:  Iter=  3 NonCon=     1 RMS=4.17D-04 Max=2.55D-03 NDo=     1
 LinEq1:  Iter=  4 NonCon=     1 RMS=5.48D-05 Max=2.42D-04 NDo=     1
 LinEq1:  Iter=  5 NonCon=     1 RMS=1.05D-05 Max=4.91D-05 NDo=     1
 LinEq1:  Iter=  6 NonCon=     1 RMS=8.99D-07 Max=4.29D-06 NDo=     1
 LinEq1:  Iter=  7 NonCon=     1 RMS=6.24D-08 Max=2.49D-07 NDo=     1
 LinEq1:  Iter=  8 NonCon=     1 RMS=4.50D-09 Max=2.00D-08 NDo=     1
 LinEq1:  Iter=  9 NonCon=     1 RMS=2.15D-10 Max=1.02D-09 NDo=     1
 LinEq1:  Iter= 10 NonCon=     0 RMS=9.72D-12 Max=3.67D-11 NDo=     1
 Linear equations converged to 1.000D-10 1.000D-09 after    10 iterations.
 End of Minotr F.D. properties file   721 does not exist.
 End of Minotr F.D. properties file   722 does not exist.
 End of Minotr F.D. properties file   788 does not exist.
 Leave Link 1002 at Thu Mar 26 16:44:30 2015, MaxMem=    33554432 cpu:         1.2
 (Enter /opt/g09_D01_em64t/g09/l601.exe)
 Copying SCF densities to generalized density rwf, IOpCl= 0 IROHF=0.

 **********************************************************************

            Population analysis using the SCF density.

 **********************************************************************

 Alpha  occ. eigenvalues --  -19.13389  -0.99443  -0.52567  -0.35881  -0.28923
 Alpha virt. eigenvalues --    0.06342   0.15015   0.77830   0.79476   0.89042
 Alpha virt. eigenvalues --    0.89450   1.02135   1.15782   1.51940   1.57987
 Alpha virt. eigenvalues --    1.66364   2.23072   2.24114   2.47919   2.63227
 Alpha virt. eigenvalues --    2.68254   3.03435   3.32645   3.51414   3.73047
          Condensed to atoms (all electrons):
               1          2          3
     1  O    8.035145   0.285022   0.283712
     2  H    0.285022   0.436314  -0.026472
     3  H    0.283712  -0.026472   0.444016
 Mulliken charges:
               1
     1  O   -0.603879
     2  H    0.305136
     3  H    0.298744
     4  O   -0.834000
     5  H    0.417000
     6  H    0.417000
 Sum of Mulliken charges =   0.00000
 Mulliken charges with hydrogens summed into heavy atoms:
               1
     1  O    0.000000
     4  O    0.000000
 Electronic spatial extent (au):  <R**2>=            185.7022
 Charge=              0.0000 electrons
 Dipole moment (field-independent basis, Debye):
    X=              2.3702    Y=              3.3474    Z=              0.0000  Tot=              4.1015
 Quadrupole moment (field-independent basis, Debye-Ang):
   XX=             -9.3808   YY=             -9.0486   ZZ=             -7.1260
   XY=             -8.1138   XZ=              0.0000   YZ=              0.0000
 Traceless Quadrupole moment (field-independent basis, Debye-Ang):
   XX=             -0.8623   YY=             -0.5301   ZZ=              1.3925
   XY=             -8.1138   XZ=              0.0000   YZ=              0.0000
 Octapole moment (field-independent basis, Debye-Ang**2):
  XXX=             14.6232  YYY=             60.1666  ZZZ=              0.0000  XYY=              4.6754
  XXY=             23.9422  XXZ=              0.0000  XZZ=              2.3274  YZZ=             15.2085
  YYZ=              0.0000  XYZ=              0.0000
 Hexadecapole moment (field-independent basis, Debye-Ang**3):
 XXXX=            -23.0824 YYYY=           -215.7657 ZZZZ=             -5.1146 XXXY=            -45.0275
 XXXZ=              0.0000 YYYX=            -48.5160 YYYZ=              0.0000 ZZZX=              0.0000
 ZZZY=              0.0000 XXYY=            -10.6130 XXZZ=             -2.8228 YYZZ=            -34.4528
 XXYZ=              0.0000 YYXZ=              0.0000 ZZXY=             -4.8565
 N-N= 8.811952536523D+00 E-N=-1.989054103799D+02  KE= 7.583648850241D+01
 No NMR shielding tensors so no spin-rotation constants.
 Leave Link  601 at Thu Mar 26 16:44:30 2015, MaxMem=    33554432 cpu:         0.1
 (Enter /opt/g09_D01_em64t/g09/l701.exe)
 Compute integral first derivatives.
 ... and contract with generalized density number  6.
 Leave Link  701 at Thu Mar 26 16:44:30 2015, MaxMem=    33554432 cpu:         0.1
 (Enter /opt/g09_D01_em64t/g09/l702.exe)
 L702 exits ... SP integral derivatives will be done elsewhere.
 Leave Link  702 at Thu Mar 26 16:44:30 2015, MaxMem=    33554432 cpu:         0.0
 (Enter /opt/g09_D01_em64t/g09/l703.exe)
 Compute integral first derivatives, UseDBF=F ICtDFT=           0.
 Integral derivatives from FoFJK, PRISM(SPDF).
 Calling FoFJK, ICntrl=  10005127 FMM=F ISym2X=0 I1Cent= 0 IOpClX= 0 NMat=1 NMatS=1 NMatT=0.
 FoFJK:  IHMeth= 1 ICntrl=10005127 DoSepK=F KAlg= 0 I1Cent=   0 FoldK=F
 IRaf=         0 NMat=   1 IRICut=       1 DoRegI=T DoRafI=F ISym2E= 0.
 FoFCou: FMM=F IPFlag=           0 FMFlag=      100000 FMFlg1=         800
         NFxFlg=           0 DoJE=F BraDBF=F KetDBF=F FulRan=T
         wScrn=  0.000000 ICntrl=10005127 IOpCl=  0 I1Cent=           0 NGrid=           0
         NMat0=    1 NMatS0=      1 NMatT0=    0 NMatD0=    1 NMtDS0=    0 NMtDT0=    0
 Symmetry not used in FoFCou.
 Leave Link  703 at Thu Mar 26 16:44:31 2015, MaxMem=    33554432 cpu:         0.3
 (Enter /opt/g09_D01_em64t/g09/l716.exe)
 Dipole        = 4.83712407D-01 4.77221765D-01 1.18794055D-14
 -------------------------------------------------------------------
 Center     Atomic                   Forces (Hartrees/Bohr)
 Number     Number              X              Y              Z
 -------------------------------------------------------------------
      1        8          -0.062032736   -0.103569270    0.000000000
      2        1           0.096003558    0.001104039    0.000000000
      3        1          -0.032639003    0.103158628    0.000000000
      4        8          -0.003404283    0.001723697    0.000000000
      5        1           0.001432585   -0.001933343    0.000000000
      6        1           0.000639880   -0.000483750    0.000000000
 -------------------------------------------------------------------
 Cartesian Forces:  Max     0.103569270 RMS     0.044422565
 Z-matrix is all fixed cartesians, so copy forces.
 Force constants in Cartesian coordinates: 
                1             2             3             4             5 
      1  0.659745D+00
      2 -0.113428D+00  0.579412D+00
      3  0.000000D+00  0.000000D+00  0.100000D+01
      4 -0.554734D+00  0.000000D+00  0.000000D+00  0.554734D+00
      5 -0.458275D-01 -0.648444D-01  0.000000D+00  0.000000D+00  0.486161D-01
      6  0.000000D+00  0.000000D+00  0.000000D+00  0.000000D+00  0.000000D+00
      7 -0.105011D+00  0.113428D+00  0.000000D+00  0.000000D+00  0.458275D-01
      8  0.159255D+00 -0.514567D+00  0.000000D+00  0.000000D+00  0.162284D-01
      9  0.000000D+00  0.000000D+00  0.000000D+00  0.000000D+00  0.000000D+00
     10  0.000000D+00  0.000000D+00  0.000000D+00  0.000000D+00  0.000000D+00
     11  0.000000D+00  0.000000D+00  0.000000D+00  0.000000D+00  0.000000D+00
     12  0.000000D+00  0.000000D+00  0.000000D+00  0.000000D+00  0.000000D+00
     13  0.000000D+00  0.000000D+00  0.000000D+00  0.000000D+00  0.000000D+00
     14  0.000000D+00  0.000000D+00  0.000000D+00  0.000000D+00  0.000000D+00
     15  0.000000D+00  0.000000D+00  0.000000D+00  0.000000D+00  0.000000D+00
     16  0.000000D+00  0.000000D+00  0.000000D+00  0.000000D+00  0.000000D+00
     17  0.000000D+00  0.000000D+00  0.000000D+00  0.000000D+00  0.000000D+00
     18  0.000000D+00  0.000000D+00  0.000000D+00  0.000000D+00  0.000000D+00
                6             7             8             9            10 
      6  0.100000D+01
      7  0.000000D+00  0.105011D+00
      8  0.000000D+00 -0.159255D+00  0.498339D+00
      9  0.000000D+00  0.000000D+00  0.000000D+00  0.100000D+01
     10  0.000000D+00  0.000000D+00  0.000000D+00  0.000000D+00  0.659745D+00
     11  0.000000D+00  0.000000D+00  0.000000D+00  0.000000D+00 -0.113428D+00
     12  0.000000D+00  0.000000D+00  0.000000D+00  0.000000D+00  0.000000D+00
     13  0.000000D+00  0.000000D+00  0.000000D+00  0.000000D+00 -0.554734D+00
     14  0.000000D+00  0.000000D+00  0.000000D+00  0.000000D+00 -0.458275D-01
     15  0.000000D+00  0.000000D+00  0.000000D+00  0.000000D+00  0.000000D+00
     16  0.000000D+00  0.000000D+00  0.000000D+00  0.000000D+00 -0.105011D+00
     17  0.000000D+00  0.000000D+00  0.000000D+00  0.000000D+00  0.159255D+00
     18  0.000000D+00  0.000000D+00  0.000000D+00  0.000000D+00  0.000000D+00
               11            12            13            14            15 
     11  0.579412D+00
     12  0.000000D+00  0.100000D+01
     13  0.000000D+00  0.000000D+00  0.554734D+00
     14 -0.648444D-01  0.000000D+00  0.000000D+00  0.486161D-01
     15  0.000000D+00  0.000000D+00  0.000000D+00  0.000000D+00  0.100000D+01
     16  0.113428D+00  0.000000D+00  0.000000D+00  0.458275D-01  0.000000D+00
     17 -0.514567D+00  0.000000D+00  0.000000D+00  0.162284D-01  0.000000D+00
     18  0.000000D+00  0.000000D+00  0.000000D+00  0.000000D+00  0.000000D+00
               16            17            18 
     16  0.105011D+00
     17 -0.159255D+00  0.498339D+00
     18  0.000000D+00  0.000000D+00  0.100000D+01
 Leave Link  716 at Thu Mar 26 16:44:31 2015, MaxMem=    33554432 cpu:         0.0
 (Enter /opt/g09_D01_em64t/g09/l103.exe)

 GradGradGradGradGradGradGradGradGradGradGradGradGradGradGradGradGradGrad
 Berny optimization.
 Search for a local minimum.
 Step number   1 out of a maximum of    2
 All quantities printed in internal units (Hartrees-Bohrs-Radians)
 Second derivative matrix not updated -- first step.
 The second derivative matrix:
                          X1        Y1        Z1        X2        Y2
           X1           0.65975
           Y1          -0.11343   0.57941
           Z1           0.00000   0.00000   1.00000
           X2          -0.55473   0.00000   0.00000   0.55473
           Y2          -0.04583  -0.06484   0.00000   0.00000   0.04862
           Z2           0.00000   0.00000   0.00000   0.00000   0.00000
           X3          -0.10501   0.11343   0.00000   0.00000   0.04583
           Y3           0.15926  -0.51457   0.00000   0.00000   0.01623
           Z3           0.00000   0.00000   0.00000   0.00000   0.00000
           X4           0.00000   0.00000   0.00000   0.00000   0.00000
           Y4           0.00000   0.00000   0.00000   0.00000   0.00000
           Z4           0.00000   0.00000   0.00000   0.00000   0.00000
           X5           0.00000   0.00000   0.00000   0.00000   0.00000
           Y5           0.00000   0.00000   0.00000   0.00000   0.00000
           Z5           0.00000   0.00000   0.00000   0.00000   0.00000
           X6           0.00000   0.00000   0.00000   0.00000   0.00000
           Y6           0.00000   0.00000   0.00000   0.00000   0.00000
           Z6           0.00000   0.00000   0.00000   0.00000   0.00000
                          Z2        X3        Y3        Z3        X4
           Z2           1.00000
           X3           0.00000   0.10501
           Y3           0.00000  -0.15926   0.49834
           Z3           0.00000   0.00000   0.00000   1.00000
           X4           0.00000   0.00000   0.00000   0.00000   0.65975
           Y4           0.00000   0.00000   0.00000   0.00000  -0.11343
           Z4           0.00000   0.00000   0.00000   0.00000   0.00000
           X5           0.00000   0.00000   0.00000   0.00000  -0.55473
           Y5           0.00000   0.00000   0.00000   0.00000  -0.04583
           Z5           0.00000   0.00000   0.00000   0.00000   0.00000
           X6           0.00000   0.00000   0.00000   0.00000  -0.10501
           Y6           0.00000   0.00000   0.00000   0.00000   0.15926
           Z6           0.00000   0.00000   0.00000   0.00000   0.00000
                          Y4        Z4        X5        Y5        Z5
           Y4           0.57941
           Z4           0.00000   1.00000
           X5           0.00000   0.00000   0.55473
           Y5          -0.06484   0.00000   0.00000   0.04862
           Z5           0.00000   0.00000   0.00000   0.00000   1.00000
           X6           0.11343   0.00000   0.00000   0.04583   0.00000
           Y6          -0.51457   0.00000   0.00000   0.01623   0.00000
           Z6           0.00000   0.00000   0.00000   0.00000   0.00000
                          X6        Y6        Z6
           X6           0.10501
           Y6          -0.15926   0.49834
           Z6           0.00000   0.00000   1.00000
 ITU=  0
     Eigenvalues ---    0.00000   0.00000   0.00000   0.04862   0.16389
     Eigenvalues ---    0.55473   0.98732   1.00000   1.00000   1.00000
     Eigenvalues ---    1.00000   1.29464
 Eigenvalue     1 is  -3.33D-16 should be greater than     0.000000 Eigenvector:
                          X5        X4        Y5        X6        Y6
   1                    0.62215   0.62215   0.37070   0.26507  -0.13456
                          Y4        Z4        Z5        Y1        Y2
   1                   -0.00811   0.00000   0.00000   0.00000   0.00000
 Eigenvalue     2 is   0.00D+00 Eigenvector:
                          Y6        Y4        X6        Y5        X4
   1                    0.70883   0.59574   0.26659   0.25692  -0.05279
                          X5        Z4        Z5        Y2        X1
   1                   -0.05279   0.00000   0.00000   0.00000   0.00000
 Eigenvalue     3 is   4.44D-16 Eigenvector:
                          Y5        X6        Y6        Y4        X4
   1                    0.72033  -0.66771  -0.10667   0.10030  -0.08324
                          X5        Z4        Z5        Y2        X2
   1                   -0.08324   0.00000   0.00000   0.00000   0.00000
 Quadratic step=2.287D+01 exceeds max=3.000D-01 adjusted using Lamda=-1.017D-02.
 Angle between NR and scaled steps=  41.60 degrees.
 Angle between quadratic step and forces=  67.73 degrees.
 Linear search not attempted -- first point.
 TrRot=  0.024896 -0.026883  0.000000 -0.001050  0.000000 -0.001050
 Variable       Old X    -DE/DX   Delta X   Delta X   Delta X     New X
                                 (Linear)    (Quad)   (Total)
    X1       -0.69675  -0.06203   0.00000   0.00000   0.01619  -0.68057
    Y1       -4.14652  -0.10357   0.00000   0.00000  -0.02541  -4.17193
    Z1        0.00000   0.00000   0.00000   0.00000   0.00000   0.00000
    X2        1.11739   0.09600   0.00000   0.00000   0.01618   1.13357
    Y2       -4.14652   0.00110   0.00000   0.00000  -0.02922  -4.17574
    Z2        0.00000   0.00000   0.00000   0.00000   0.00000   0.00000
    X3       -1.30232  -0.03264   0.00000  -0.00508   0.01513  -1.28720
    Y3       -2.43644   0.10316   0.00000   0.20128   0.17715  -2.25930
    Z3        0.00000   0.00000   0.00000   0.00000   0.00000   0.00000
    X4       -4.43542  -0.00340   0.00000  -0.09607  -0.06977  -4.50519
    Y4        0.64577   0.00172   0.00000   0.01675  -0.00062   0.64515
    Z4        0.00000   0.00000   0.00000   0.00000   0.00000   0.00000
    X5       -2.62128   0.00143   0.00000  -0.09179  -0.06585  -2.68713
    Y5        0.64577  -0.00193   0.00000  -0.15347  -0.17465   0.47112
    Z5        0.00000   0.00000   0.00000   0.00000   0.00000   0.00000
    X6       -5.04099   0.00064   0.00000   0.05813   0.08813  -4.95286
    Y6        2.35585  -0.00048   0.00000   0.06917   0.05275   2.40860
    Z6        0.00000   0.00000   0.00000   0.00000   0.00000   0.00000
         Item               Value     Threshold  Converged?
 Maximum Force            0.103569     0.000450     NO 
 RMS     Force            0.044423     0.000300     NO 
 Maximum Displacement     0.177145     0.001800     NO 
 RMS     Displacement     0.068268     0.001200     NO 
 Predicted change in Energy=-1.118740D-02
 GradGradGradGradGradGradGradGradGradGradGradGradGradGradGradGradGradGrad

 Leave Link  103 at Thu Mar 26 16:44:31 2015, MaxMem=    33554432 cpu:         0.0
 (Enter /opt/g09_D01_em64t/g09/l9999.exe)

 Test job not archived.
 1\1\GINC-EAM\Force\RB3LYP TD-FC\6-31G(d,p)\H4O2\DULIKAI\26-Mar-2015\0\
 \#P force Test IOp(2/15=1,5/32=2,5/38=1) B3LYP/6-31G(D,P) TD(SINGLET,N
 STATES=3,ROOT=1) iop(9/40=20)\\ch2nh2 Point 2 -- high level on model s
 ystem.\\0,1\O,-0.36870503,-2.19424457,0.\H,0.59129497,-2.19424457,0.\H
 ,-0.68915962,-1.28930874,0.\O,-2.34712227,0.34172661,0.\H,-1.38712227,
 0.34172661,0.\H,-2.66757686,1.24666244,0.\\Version=EM64L-G09RevD.01\HF
 =-76.7397878\RMSD=3.356e-09\RMSF=4.442e-02\Dipole=0.4837124,0.4772218,
 0.\PG=CS [SG(H4O2)]\\@


 I WANT IT ALL - RICH, THIN, AND CHOCOLATE.
 Job cpu time:       0 days  0 hours  0 minutes  5.0 seconds.
 File lengths (MBytes):  RWF=      5 Int=      0 D2E=      0 Chk=      1 Scr=      1
 Normal termination of Gaussian 09 at Thu Mar 26 16:44:31 2015.
