 Entering Gaussian System, Link 0=g09
 Input=high-model-overlap.gjf
 Output=high-model-overlap.log
 Initial command:
 /opt/g09_D01_em64t/g09/l1.exe "/tmp/Gau-31293.inp" -scrdir="/tmp/"
 Entering Link 1 = /opt/g09_D01_em64t/g09/l1.exe PID=     31294.
  
 Copyright (c) 1988,1990,1992,1993,1995,1998,2003,2009,2013,
            Gaussian, Inc.  All Rights Reserved.
  
 This is part of the Gaussian(R) 09 program.  It is based on
 the Gaussian(R) 03 system (copyright 2003, Gaussian, Inc.),
 the Gaussian(R) 98 system (copyright 1998, Gaussian, Inc.),
 the Gaussian(R) 94 system (copyright 1995, Gaussian, Inc.),
 the Gaussian 92(TM) system (copyright 1992, Gaussian, Inc.),
 the Gaussian 90(TM) system (copyright 1990, Gaussian, Inc.),
 the Gaussian 88(TM) system (copyright 1988, Gaussian, Inc.),
 the Gaussian 86(TM) system (copyright 1986, Carnegie Mellon
 University), and the Gaussian 82(TM) system (copyright 1983,
 Carnegie Mellon University). Gaussian is a federally registered
 trademark of Gaussian, Inc.
  
 This software contains proprietary and confidential information,
 including trade secrets, belonging to Gaussian, Inc.
  
 This software is provided under written license and may be
 used, copied, transmitted, or stored only in accord with that
 written license.
  
 The following legend is applicable only to US Government
 contracts under FAR:
  
                    RESTRICTED RIGHTS LEGEND
  
 Use, reproduction and disclosure by the US Government is
 subject to restrictions as set forth in subparagraphs (a)
 and (c) of the Commercial Computer Software - Restricted
 Rights clause in FAR 52.227-19.
  
 Gaussian, Inc.
 340 Quinnipiac St., Bldg. 40, Wallingford CT 06492
  
  
 ---------------------------------------------------------------
 Warning -- This program may not be used in any manner that
 competes with the business of Gaussian, Inc. or will provide
 assistance to any competitor of Gaussian, Inc.  The licensee
 of this program is prohibited from giving any competitor of
 Gaussian, Inc. access to this program.  By using this program,
 the user acknowledges that Gaussian, Inc. is engaged in the
 business of creating and licensing software in the field of
 computational chemistry and represents and warrants to the
 licensee that it is not a competitor of Gaussian, Inc. and that
 it will not use this program in any manner prohibited above.
 ---------------------------------------------------------------
  

 Cite this work as:
 Gaussian 09, Revision D.01,
 M. J. Frisch, G. W. Trucks, H. B. Schlegel, G. E. Scuseria, 
 M. A. Robb, J. R. Cheeseman, G. Scalmani, V. Barone, B. Mennucci, 
 G. A. Petersson, H. Nakatsuji, M. Caricato, X. Li, H. P. Hratchian, 
 A. F. Izmaylov, J. Bloino, G. Zheng, J. L. Sonnenberg, M. Hada, 
 M. Ehara, K. Toyota, R. Fukuda, J. Hasegawa, M. Ishida, T. Nakajima, 
 Y. Honda, O. Kitao, H. Nakai, T. Vreven, J. A. Montgomery, Jr., 
 J. E. Peralta, F. Ogliaro, M. Bearpark, J. J. Heyd, E. Brothers, 
 K. N. Kudin, V. N. Staroverov, T. Keith, R. Kobayashi, J. Normand, 
 K. Raghavachari, A. Rendell, J. C. Burant, S. S. Iyengar, J. Tomasi, 
 M. Cossi, N. Rega, J. M. Millam, M. Klene, J. E. Knox, J. B. Cross, 
 V. Bakken, C. Adamo, J. Jaramillo, R. Gomperts, R. E. Stratmann, 
 O. Yazyev, A. J. Austin, R. Cammi, C. Pomelli, J. W. Ochterski, 
 R. L. Martin, K. Morokuma, V. G. Zakrzewski, G. A. Voth, 
 P. Salvador, J. J. Dannenberg, S. Dapprich, A. D. Daniels, 
 O. Farkas, J. B. Foresman, J. V. Ortiz, J. Cioslowski, 
 and D. J. Fox, Gaussian, Inc., Wallingford CT, 2013.
 
 ******************************************
 Gaussian 09:  EM64L-G09RevD.01 24-Apr-2013
                25-Mar-2015 
 ******************************************
 %mem=1GB
 %nproc=2
 Will use up to    2 processors via shared memory.
 %nproclinda=1
 Will use up to    1 processors via Linda.
 -------------------------------------------------------------
 # HF/6-31G(D,P) nosymm iop(2/12=3,3/33=1) guess=only pop=full
 -------------------------------------------------------------
 1/38=1/1;
 2/12=3,15=1,17=6,18=5,40=1/2;
 3/5=1,6=6,7=101,11=9,16=1,25=1,30=1,33=1,89=1/1,2;
 4//1;
 6/7=3,28=1/1;
 99/5=2/99;
 ---------------------------------------------
 ch2nh2 Point 2 -- high level on model system.
 ---------------------------------------------
 Symbolic Z-matrix:
 Charge =  0 Multiplicity = 1
 o                    -2.39687   0.12698   0.11121 
 h                    -1.24301   0.20673   0.16045 
 h                    -2.84455   0.14332   1.10134 
 o                    -2.39687   0.38312   0.11121 
 h                    -1.24301   0.20673   0.16045 
 h                    -2.84455   0.14332   1.10134 
 
                          Input orientation:                          
 ---------------------------------------------------------------------
 Center     Atomic      Atomic             Coordinates (Angstroms)
 Number     Number       Type             X           Y           Z
 ---------------------------------------------------------------------
      1          8           0       -2.396866    0.126981    0.111211
      2          1           0       -1.243006    0.206726    0.160448
      3          1           0       -2.844548    0.143319    1.101336
      4          8           0       -2.396866    0.383122    0.111211
      5          1           0       -1.243006    0.206726    0.160448
      6          1           0       -2.844548    0.143319    1.101336
 ---------------------------------------------------------------------
                    Distance matrix (angstroms):
                    1          2          3          4          5
     1  O    0.000000
     2  H    1.157660   0.000000
     3  H    1.086755   1.858556   0.000000
     4  O    0.256141   1.168303   1.112778   0.000000
     5  H    1.157660   0.000000   1.858556   1.168303   0.000000
     6  H    1.086755   1.858556   0.000000   1.112778   1.858556
                    6
     6  H    0.000000
 Symmetry turned off by external request.
 Stoichiometry    H4O2
 Framework group  C1[X(H4O2)]
 Deg. of freedom    12
 Full point group                 C1      NOp   1
 Rotational constants (GHZ):    258.9858178    126.3091657    102.4751949
 Standard basis: 6-31G(d,p) (6D, 7F)
                         Coordinates in L301:                         
 ---------------------------------------------------------------------
 Center     Atomic      Atomic             Coordinates (Angstroms)
 Number     Number       Type             X           Y           Z
 ---------------------------------------------------------------------
      1          8           0       -2.396866    0.126981    0.111211
      2          1           0       -1.243006    0.206726    0.160448
      3          1           0       -2.844548    0.143319    1.101336
      4          8           0       -2.396866    0.383122    0.111211
      5          1           0       -1.243006    0.206726    0.160448
      6          1           0       -2.844548    0.143319    1.101336
 ---------------------------------------------------------------------
 FixB: optimizing general contractions.
 Ernie: Thresh=  0.10000D-02 Tol=  0.10000D-05 Strict=F.
 IA=     1 ShT= 0 ShC= 0 NL=   1 NS=   0.
 IA=     1 L=0 SC=0 ISt=    0 NBk=    0 NP=    0 IndPr=    0.
 IA=     1 ShT= 1 ShC= 0 NL=   2 NS=   1.
 IA=     1 L=1 SC=0 ISt=    0 NBk=    0 NP=    0 IndPr=    0.
 IA=     1 ShT= 2 ShC= 2 NL=   1 NS=   1.
 IA=     1 L=2 SC=2 ISt=    0 NBk=    0 NP=    0 IndPr=    0.
 IA=     2 ShT= 0 ShC= 0 NL=   2 NS=   1.
 IA=     2 L=0 SC=0 ISt=    0 NBk=    0 NP=    0 IndPr=    0.
 IA=     2 ShT= 1 ShC= 1 NL=   1 NS=   1.
 IA=     2 L=1 SC=1 ISt=    0 NBk=    0 NP=    0 IndPr=    0.
 IA=     3 ShT= 0 ShC= 0 NL=   2 NS=   1.
 IA=     3 L=0 SC=0 ISt=    0 NBk=    0 NP=    0 IndPr=    0.
 IA=     3 ShT= 1 ShC= 1 NL=   1 NS=   1.
 IA=     3 L=1 SC=1 ISt=    0 NBk=    0 NP=    0 IndPr=    0.
 IA=     4 ShT= 0 ShC= 0 NL=   1 NS=   0.
 IA=     4 L=0 SC=0 ISt=    0 NBk=    0 NP=    0 IndPr=    0.
 IA=     4 ShT= 1 ShC= 0 NL=   2 NS=   1.
 IA=     4 L=1 SC=0 ISt=    0 NBk=    0 NP=    0 IndPr=    0.
 IA=     4 ShT= 2 ShC= 2 NL=   1 NS=   1.
 IA=     4 L=2 SC=2 ISt=    0 NBk=    0 NP=    0 IndPr=    0.
 IA=     5 ShT= 0 ShC= 0 NL=   2 NS=   1.
 IA=     5 L=0 SC=0 ISt=    0 NBk=    0 NP=    0 IndPr=    0.
 IA=     5 ShT= 1 ShC= 1 NL=   1 NS=   1.
 IA=     5 L=1 SC=1 ISt=    0 NBk=    0 NP=    0 IndPr=    0.
 IA=     6 ShT= 0 ShC= 0 NL=   2 NS=   1.
 IA=     6 L=0 SC=0 ISt=    0 NBk=    0 NP=    0 IndPr=    0.
 IA=     6 ShT= 1 ShC= 1 NL=   1 NS=   1.
 IA=     6 L=1 SC=1 ISt=    0 NBk=    0 NP=    0 IndPr=    0.
 LdAtmC:  AtmChg=     8.000000     1.000000     1.000000     8.000000     1.000000
 LdAtmC:  AtmChg=     1.000000
 RepNN0:  I=     5 J=     2 R= 0.00D+00
 RepNN0:  I=     6 J=     3 R= 0.00D+00
 AtZEff=     -5.6000000     -1.0000000     -1.0000000     -5.6000000     -1.0000000
 AtZEff=     -1.0000000
    50 basis functions,    84 primitive gaussians,    50 cartesian basis functions
    10 alpha electrons       10 beta electrons
       nuclear repulsion energy                  Inf Hartrees.
 IS=     1 IAt=     1 ISR=     1 T=0 IP=      1 IndIP=      1 IndIPD=      0 C=  8.317237D-01  0.000000D+00                             NZ=T
 IS=     1 IAt=     1 ISR=     1 T=0 IP=      2 IndIP=      2 IndIPD=      1 C=  1.530816D+00  0.000000D+00                             NZ=T
 IS=     1 IAt=     1 ISR=     1 T=0 IP=      3 IndIP=      3 IndIPD=      2 C=  2.477149D+00  0.000000D+00                             NZ=T
 IS=     1 IAt=     1 ISR=     1 T=0 IP=      4 IndIP=      4 IndIPD=      3 C=  3.256281D+00  0.000000D+00                             NZ=T
 IS=     1 IAt=     1 ISR=     1 T=0 IP=      5 IndIP=      5 IndIPD=      4 C=  2.792893D+00  0.000000D+00                             NZ=T
 IS=     1 IAt=     1 ISR=     1 T=0 IP=      6 IndIP=      6 IndIPD=      5 C=  9.549377D-01  0.000000D+00                             NZ=T
 IS=     2 IAt=     1 ISR=     2 T=1 IP=      1 IndIP=      7 IndIPD=      0 C= -6.179340D-01  3.116944D+00                             NZ=T
 IS=     2 IAt=     1 ISR=     2 T=1 IP=      2 IndIP=      8 IndIPD=      1 C= -2.757209D-01  2.401438D+00                             NZ=T
 IS=     2 IAt=     1 ISR=     2 T=1 IP=      3 IndIP=      9 IndIPD=      2 C=  8.142076D-01  1.054360D+00                             NZ=T
 IS=     3 IAt=     1 ISR=     3 T=1 IP=      1 IndIP=     10 IndIPD=      0 C=  2.669562D-01  2.774320D-01                             NZ=T
 IS=     4 IAt=     1 ISR=     4 T=2 IP=      1 IndIP=     11 IndIPD=      1 C=  0.000000D+00  0.000000D+00  1.113825D+00  0.000000D+00 NZ=T
 IS=     5 IAt=     2 ISR=     1 T=0 IP=      1 IndIP=     12 IndIPD=      0 C=  2.149354D-01  0.000000D+00                             NZ=T
 IS=     5 IAt=     2 ISR=     1 T=0 IP=      2 IndIP=     13 IndIPD=      1 C=  3.645712D-01  0.000000D+00                             NZ=T
 IS=     5 IAt=     2 ISR=     1 T=0 IP=      3 IndIP=     14 IndIPD=      2 C=  4.150514D-01  0.000000D+00                             NZ=T
 IS=     6 IAt=     2 ISR=     2 T=0 IP=      1 IndIP=     15 IndIPD=      0 C=  1.813806D-01  0.000000D+00                             NZ=T
 IS=     7 IAt=     2 ISR=     3 T=1 IP=      1 IndIP=     16 IndIPD=      0 C=  0.000000D+00  1.605761D+00                             NZ=T
 IS=     8 IAt=     3 ISR=     1 T=0 IP=      1 IndIP=     17 IndIPD=      0 C=  2.149354D-01  0.000000D+00                             NZ=T
 IS=     8 IAt=     3 ISR=     1 T=0 IP=      2 IndIP=     18 IndIPD=      1 C=  3.645712D-01  0.000000D+00                             NZ=T
 IS=     8 IAt=     3 ISR=     1 T=0 IP=      3 IndIP=     19 IndIPD=      2 C=  4.150514D-01  0.000000D+00                             NZ=T
 IS=     9 IAt=     3 ISR=     2 T=0 IP=      1 IndIP=     20 IndIPD=      0 C=  1.813806D-01  0.000000D+00                             NZ=T
 IS=    10 IAt=     3 ISR=     3 T=1 IP=      1 IndIP=     21 IndIPD=      0 C=  0.000000D+00  1.605761D+00                             NZ=T
 IS=    11 IAt=     4 ISR=     1 T=0 IP=      1 IndIP=     22 IndIPD=      0 C=  8.317237D-01  0.000000D+00                             NZ=T
 IS=    11 IAt=     4 ISR=     1 T=0 IP=      2 IndIP=     23 IndIPD=      1 C=  1.530816D+00  0.000000D+00                             NZ=T
 IS=    11 IAt=     4 ISR=     1 T=0 IP=      3 IndIP=     24 IndIPD=      2 C=  2.477149D+00  0.000000D+00                             NZ=T
 IS=    11 IAt=     4 ISR=     1 T=0 IP=      4 IndIP=     25 IndIPD=      3 C=  3.256281D+00  0.000000D+00                             NZ=T
 IS=    11 IAt=     4 ISR=     1 T=0 IP=      5 IndIP=     26 IndIPD=      4 C=  2.792893D+00  0.000000D+00                             NZ=T
 IS=    11 IAt=     4 ISR=     1 T=0 IP=      6 IndIP=     27 IndIPD=      5 C=  9.549377D-01  0.000000D+00                             NZ=T
 IS=    12 IAt=     4 ISR=     2 T=1 IP=      1 IndIP=     28 IndIPD=      0 C= -6.179340D-01  3.116944D+00                             NZ=T
 IS=    12 IAt=     4 ISR=     2 T=1 IP=      2 IndIP=     29 IndIPD=      1 C= -2.757209D-01  2.401438D+00                             NZ=T
 IS=    12 IAt=     4 ISR=     2 T=1 IP=      3 IndIP=     30 IndIPD=      2 C=  8.142076D-01  1.054360D+00                             NZ=T
 IS=    13 IAt=     4 ISR=     3 T=1 IP=      1 IndIP=     31 IndIPD=      0 C=  2.669562D-01  2.774320D-01                             NZ=T
 IS=    14 IAt=     4 ISR=     4 T=2 IP=      1 IndIP=     32 IndIPD=      2 C=  0.000000D+00  0.000000D+00  1.113825D+00  0.000000D+00 NZ=T
 IS=    15 IAt=     5 ISR=     1 T=0 IP=      1 IndIP=     33 IndIPD=      0 C=  2.149354D-01  0.000000D+00                             NZ=T
 IS=    15 IAt=     5 ISR=     1 T=0 IP=      2 IndIP=     34 IndIPD=      1 C=  3.645712D-01  0.000000D+00                             NZ=T
 IS=    15 IAt=     5 ISR=     1 T=0 IP=      3 IndIP=     35 IndIPD=      2 C=  4.150514D-01  0.000000D+00                             NZ=T
 IS=    16 IAt=     5 ISR=     2 T=0 IP=      1 IndIP=     36 IndIPD=      0 C=  1.813806D-01  0.000000D+00                             NZ=T
 IS=    17 IAt=     5 ISR=     3 T=1 IP=      1 IndIP=     37 IndIPD=      0 C=  0.000000D+00  1.605761D+00                             NZ=T
 IS=    18 IAt=     6 ISR=     1 T=0 IP=      1 IndIP=     38 IndIPD=      0 C=  2.149354D-01  0.000000D+00                             NZ=T
 IS=    18 IAt=     6 ISR=     1 T=0 IP=      2 IndIP=     39 IndIPD=      1 C=  3.645712D-01  0.000000D+00                             NZ=T
 IS=    18 IAt=     6 ISR=     1 T=0 IP=      3 IndIP=     40 IndIPD=      2 C=  4.150514D-01  0.000000D+00                             NZ=T
 IS=    19 IAt=     6 ISR=     2 T=0 IP=      1 IndIP=     41 IndIPD=      0 C=  1.813806D-01  0.000000D+00                             NZ=T
 IS=    20 IAt=     6 ISR=     3 T=1 IP=      1 IndIP=     42 IndIPD=      0 C=  0.000000D+00  1.605761D+00                             NZ=T
 NAtoms=    6 NActive=    6 NUniq=    6 SFac= 1.00D+00 NAtFMM=   60 NAOKFM=F Big=F
 Integral buffers will be    131072 words long.
 Raffenetti 1 integral format.
 Two-electron integral symmetry is turned off.
 NPDir=0 NMtPBC=     1 NCelOv=     1 NCel=       1 NClECP=     1 NCelD=      1
         NCelK=      1 NCelE2=     1 NClLst=     1 CellRange=     0.0.
 One-electron integrals computed using PRISM.
 Entering OneElI...
 Calculate overlap and kinetic energy integrals
    NBasis =  50  MinDer = 0  MaxDer = 0
 Requested accuracy = 0.1000D-12
 PrsmSu:  NPrtUS=   2 ThrOK=T IAlg=1 NPAlg=2 LenDen=           0.
 Prism:   IPart=     0 DynPar=F LinDyn=F Incr=           1.
 PRISM was handed    67090443 working-precision words and   210 shell-pairs
 PRISM was handed    67090443 working-precision words and   210 shell-pairs
 IPart=  1 NShTot=         103 NBatch=          28 AvBLen=         3.7
 IPart=  0 NShTot=         107 NBatch=          29 AvBLen=         3.7
 PrSmSu:  NxtVal=              3.
 *** Overlap *** 
                1             2             3             4             5 
      1  0.100000D+01
      2  0.233690D+00  0.100000D+01
      3  0.000000D+00  0.000000D+00  0.100000D+01
      4  0.000000D+00  0.000000D+00  0.000000D+00  0.100000D+01
      5  0.000000D+00  0.000000D+00  0.000000D+00  0.000000D+00  0.100000D+01
      6  0.167280D+00  0.763641D+00  0.000000D+00  0.000000D+00  0.000000D+00
      7  0.000000D+00  0.000000D+00  0.501521D+00  0.000000D+00  0.000000D+00
      8  0.000000D+00  0.000000D+00  0.000000D+00  0.501521D+00  0.000000D+00
      9  0.000000D+00  0.000000D+00  0.000000D+00  0.000000D+00  0.501521D+00
     10  0.335315D-01  0.547066D+00  0.000000D+00  0.000000D+00  0.000000D+00
     11  0.335315D-01  0.547066D+00  0.000000D+00  0.000000D+00  0.000000D+00
     12  0.335315D-01  0.547066D+00  0.000000D+00  0.000000D+00  0.000000D+00
     13  0.000000D+00  0.000000D+00  0.000000D+00  0.000000D+00  0.000000D+00
     14  0.000000D+00  0.000000D+00  0.000000D+00  0.000000D+00  0.000000D+00
     15  0.000000D+00  0.000000D+00  0.000000D+00  0.000000D+00  0.000000D+00
     16  0.141982D-01  0.134998D+00  0.177182D+00  0.122452D-01  0.756063D-02
     17  0.543256D-01  0.308808D+00  0.143937D+00  0.994763D-02  0.614201D-02
     18 -0.161221D-01 -0.189987D+00 -0.262047D+00 -0.224070D-01 -0.138349D-01
     19 -0.111422D-02 -0.131302D-01 -0.224070D-01  0.606213D-01 -0.956143D-03
     20 -0.687956D-03 -0.810704D-02 -0.138349D-01 -0.956143D-03  0.615796D-01
     21  0.199121D-01  0.169671D+00 -0.881361D-01  0.321639D-02  0.194928D+00
     22  0.594363D-01  0.333988D+00 -0.604976D-01  0.220777D-02  0.133801D+00
     23  0.108384D-01  0.985382D-01  0.178009D-01  0.245221D-02  0.148615D+00
     24 -0.395530D-03 -0.359600D-02  0.245221D-02  0.849072D-01 -0.542347D-02
     25 -0.239709D-01 -0.217934D+00  0.148615D+00 -0.542347D-02 -0.243690D+00
     26  0.230436D+00  0.284740D+00  0.000000D+00  0.408698D+00  0.000000D+00
     27  0.284740D+00  0.887069D+00  0.000000D+00  0.332173D+00  0.000000D+00
     28  0.000000D+00  0.000000D+00  0.828524D+00  0.000000D+00  0.000000D+00
     29 -0.408698D+00 -0.332173D+00  0.000000D+00  0.531400D+00  0.000000D+00
     30  0.000000D+00  0.000000D+00  0.000000D+00  0.000000D+00  0.828524D+00
     31  0.157335D+00  0.727053D+00  0.000000D+00  0.119853D+00  0.000000D+00
     32  0.000000D+00  0.000000D+00  0.476525D+00  0.000000D+00  0.000000D+00
     33 -0.766799D-01 -0.283885D+00  0.000000D+00  0.427804D+00  0.000000D+00
     34  0.000000D+00  0.000000D+00  0.000000D+00  0.000000D+00  0.476525D+00
     35  0.283522D-01  0.493667D+00  0.000000D+00  0.155909D+00  0.000000D+00
     36  0.134415D+00  0.594712D+00  0.000000D+00 -0.277180D+00  0.000000D+00
     37  0.283522D-01  0.493667D+00  0.000000D+00  0.155909D+00  0.000000D+00
     38  0.000000D+00  0.000000D+00 -0.425304D+00  0.000000D+00  0.000000D+00
     39  0.000000D+00  0.000000D+00  0.000000D+00  0.000000D+00  0.000000D+00
     40  0.000000D+00  0.000000D+00  0.000000D+00  0.000000D+00 -0.425304D+00
     41  0.141982D-01  0.134998D+00  0.177182D+00  0.122452D-01  0.756063D-02
     42  0.543256D-01  0.308808D+00  0.143937D+00  0.994763D-02  0.614201D-02
     43 -0.161221D-01 -0.189987D+00 -0.262047D+00 -0.224070D-01 -0.138349D-01
     44 -0.111422D-02 -0.131302D-01 -0.224070D-01  0.606213D-01 -0.956143D-03
     45 -0.687956D-03 -0.810704D-02 -0.138349D-01 -0.956143D-03  0.615796D-01
     46  0.199121D-01  0.169671D+00 -0.881361D-01  0.321639D-02  0.194928D+00
     47  0.594363D-01  0.333988D+00 -0.604976D-01  0.220777D-02  0.133801D+00
     48  0.108384D-01  0.985382D-01  0.178009D-01  0.245221D-02  0.148615D+00
     49 -0.395530D-03 -0.359600D-02  0.245221D-02  0.849072D-01 -0.542347D-02
     50 -0.239709D-01 -0.217934D+00  0.148615D+00 -0.542347D-02 -0.243690D+00
                6             7             8             9            10 
      6  0.100000D+01
      7  0.000000D+00  0.100000D+01
      8  0.000000D+00  0.000000D+00  0.100000D+01
      9  0.000000D+00  0.000000D+00  0.000000D+00  0.100000D+01
     10  0.699015D+00  0.000000D+00  0.000000D+00  0.000000D+00  0.100000D+01
     11  0.699015D+00  0.000000D+00  0.000000D+00  0.000000D+00  0.333333D+00
     12  0.699015D+00  0.000000D+00  0.000000D+00  0.000000D+00  0.333333D+00
     13  0.000000D+00  0.000000D+00  0.000000D+00  0.000000D+00  0.000000D+00
     14  0.000000D+00  0.000000D+00  0.000000D+00  0.000000D+00  0.000000D+00
     15  0.000000D+00  0.000000D+00  0.000000D+00  0.000000D+00  0.000000D+00
     16  0.318027D+00  0.522076D+00  0.360813D-01  0.222778D-01  0.401322D+00
     17  0.587154D+00  0.497544D+00  0.343859D-01  0.212310D-01  0.410627D+00
     18 -0.226657D+00 -0.212343D+00 -0.285007D-01 -0.175973D-01 -0.431104D+00
     19 -0.156645D-01 -0.285007D-01  0.198077D+00 -0.121617D-02 -0.488233D-01
     20 -0.967182D-02 -0.175973D-01 -0.121617D-02  0.199295D+00 -0.301452D-01
     21  0.355436D+00 -0.226582D+00  0.826876D-02  0.501124D+00  0.176373D+00
     22  0.621830D+00 -0.204442D+00  0.746078D-02  0.452157D+00  0.366133D+00
     23  0.994701D-01  0.156057D+00  0.256250D-02  0.155299D+00 -0.423762D-01
     24 -0.363001D-02  0.256250D-02  0.226181D+00 -0.566740D-02 -0.352595D-02
     25 -0.219995D+00  0.155299D+00 -0.566740D-02 -0.117195D+00 -0.213688D+00
     26  0.157335D+00  0.000000D+00  0.766799D-01  0.000000D+00  0.283522D-01
     27  0.727053D+00  0.000000D+00  0.283885D+00  0.000000D+00  0.493667D+00
     28  0.000000D+00  0.476525D+00  0.000000D+00  0.000000D+00  0.000000D+00
     29 -0.119853D+00  0.000000D+00  0.427804D+00  0.000000D+00 -0.155909D+00
     30  0.000000D+00  0.000000D+00  0.000000D+00  0.476525D+00  0.000000D+00
     31  0.968865D+00  0.000000D+00  0.243684D+00  0.000000D+00  0.666723D+00
     32  0.000000D+00  0.968865D+00  0.000000D+00  0.000000D+00  0.000000D+00
     33 -0.243684D+00  0.000000D+00  0.907575D+00  0.000000D+00 -0.250752D+00
     34  0.000000D+00  0.000000D+00  0.000000D+00  0.968865D+00  0.000000D+00
     35  0.666723D+00  0.000000D+00  0.250752D+00  0.000000D+00  0.910541D+00
     36  0.688009D+00  0.000000D+00  0.894961D-01  0.000000D+00  0.360402D+00
     37  0.666723D+00  0.000000D+00  0.250752D+00  0.000000D+00  0.303514D+00
     38  0.000000D+00 -0.146584D+00  0.000000D+00  0.000000D+00  0.000000D+00
     39  0.000000D+00  0.000000D+00  0.000000D+00  0.000000D+00  0.000000D+00
     40  0.000000D+00  0.000000D+00  0.000000D+00 -0.146584D+00  0.000000D+00
     41  0.318027D+00  0.522076D+00  0.360813D-01  0.222778D-01  0.401322D+00
     42  0.587154D+00  0.497544D+00  0.343859D-01  0.212310D-01  0.410627D+00
     43 -0.226657D+00 -0.212343D+00 -0.285007D-01 -0.175973D-01 -0.431104D+00
     44 -0.156645D-01 -0.285007D-01  0.198077D+00 -0.121617D-02 -0.488233D-01
     45 -0.967182D-02 -0.175973D-01 -0.121617D-02  0.199295D+00 -0.301452D-01
     46  0.355436D+00 -0.226582D+00  0.826876D-02  0.501124D+00  0.176373D+00
     47  0.621830D+00 -0.204442D+00  0.746078D-02  0.452157D+00  0.366133D+00
     48  0.994701D-01  0.156057D+00  0.256250D-02  0.155299D+00 -0.423762D-01
     49 -0.363001D-02  0.256250D-02  0.226181D+00 -0.566740D-02 -0.352595D-02
     50 -0.219995D+00  0.155299D+00 -0.566740D-02 -0.117195D+00 -0.213688D+00
               11            12            13            14            15 
     11  0.100000D+01
     12  0.333333D+00  0.100000D+01
     13  0.000000D+00  0.000000D+00  0.100000D+01
     14  0.000000D+00  0.000000D+00  0.000000D+00  0.100000D+01
     15  0.000000D+00  0.000000D+00  0.000000D+00  0.000000D+00  0.100000D+01
     16  0.980545D-01  0.971539D-01  0.364766D-01  0.225219D-01  0.155652D-02
     17  0.326996D+00  0.326748D+00  0.100589D-01  0.621074D-02  0.429231D-03
     18 -0.103020D+00 -0.101228D+00 -0.560994D-01 -0.346377D-01 -0.309707D-02
     19  0.119093D-01 -0.699597D-02  0.233436D+00 -0.309707D-02  0.996109D-02
     20 -0.439602D-02  0.742967D-02 -0.309707D-02  0.236540D+00  0.163475D-01
     21  0.118772D+00  0.400823D+00 -0.364570D-02 -0.220946D+00  0.806309D-02
     22  0.352499D+00  0.419261D+00 -0.862939D-03 -0.522980D-01  0.190854D-02
     23  0.506049D-01  0.275919D+00  0.148049D-02  0.897244D-01  0.644113D-02
     24  0.322565D-02 -0.100692D-01 -0.120267D+00  0.644113D-02  0.265990D+00
     25 -0.111921D+00 -0.302830D+00  0.644113D-02  0.269988D+00 -0.985281D-02
     26  0.134415D+00  0.283522D-01  0.000000D+00  0.000000D+00  0.000000D+00
     27  0.594712D+00  0.493667D+00  0.000000D+00  0.000000D+00  0.000000D+00
     28  0.000000D+00  0.000000D+00  0.425304D+00  0.000000D+00  0.000000D+00
     29  0.277180D+00 -0.155909D+00  0.000000D+00  0.000000D+00  0.000000D+00
     30  0.000000D+00  0.000000D+00  0.000000D+00  0.000000D+00  0.425304D+00
     31  0.688009D+00  0.666723D+00  0.000000D+00  0.000000D+00  0.000000D+00
     32  0.000000D+00  0.000000D+00  0.146584D+00  0.000000D+00  0.000000D+00
     33 -0.894961D-01 -0.250752D+00  0.000000D+00  0.000000D+00  0.000000D+00
     34  0.000000D+00  0.000000D+00  0.000000D+00  0.000000D+00  0.146584D+00
     35  0.360402D+00  0.303514D+00  0.000000D+00  0.000000D+00  0.000000D+00
     36  0.807427D+00  0.360402D+00  0.000000D+00  0.000000D+00  0.000000D+00
     37  0.360402D+00  0.910541D+00  0.000000D+00  0.000000D+00  0.000000D+00
     38  0.000000D+00  0.000000D+00  0.739876D+00  0.000000D+00  0.000000D+00
     39  0.000000D+00  0.000000D+00  0.000000D+00  0.910541D+00  0.000000D+00
     40  0.000000D+00  0.000000D+00  0.000000D+00  0.000000D+00  0.739876D+00
     41  0.980545D-01  0.971539D-01  0.364766D-01  0.225219D-01  0.155652D-02
     42  0.326996D+00  0.326748D+00  0.100589D-01  0.621074D-02  0.429231D-03
     43 -0.103020D+00 -0.101228D+00 -0.560994D-01 -0.346377D-01 -0.309707D-02
     44  0.119093D-01 -0.699597D-02  0.233436D+00 -0.309707D-02  0.996109D-02
     45 -0.439602D-02  0.742967D-02 -0.309707D-02  0.236540D+00  0.163475D-01
     46  0.118772D+00  0.400823D+00 -0.364570D-02 -0.220946D+00  0.806309D-02
     47  0.352499D+00  0.419261D+00 -0.862939D-03 -0.522980D-01  0.190854D-02
     48  0.506049D-01  0.275919D+00  0.148049D-02  0.897244D-01  0.644113D-02
     49  0.322565D-02 -0.100692D-01 -0.120267D+00  0.644113D-02  0.265990D+00
     50 -0.111921D+00 -0.302830D+00  0.644113D-02  0.269988D+00 -0.985281D-02
               16            17            18            19            20 
     16  0.100000D+01
     17  0.658292D+00  0.100000D+01
     18  0.000000D+00  0.000000D+00  0.100000D+01
     19  0.000000D+00  0.000000D+00  0.000000D+00  0.100000D+01
     20  0.000000D+00  0.000000D+00  0.000000D+00  0.000000D+00  0.100000D+01
     21  0.131991D-01  0.130501D+00 -0.122849D-01 -0.486374D-03  0.721723D-02
     22  0.130501D+00  0.369833D+00 -0.781575D-01 -0.309435D-02  0.459166D-01
     23  0.122849D-01  0.781575D-01 -0.102670D-01 -0.451271D-03  0.669635D-02
     24  0.486374D-03  0.309435D-02 -0.451271D-03  0.111342D-02  0.265117D-03
     25 -0.721723D-02 -0.459166D-01  0.669635D-02  0.265117D-03 -0.280275D-02
     26  0.134713D-01  0.535711D-01 -0.148022D-01  0.226288D-02 -0.631632D-03
     27  0.130299D+00  0.305066D+00 -0.181567D+00  0.277571D-01 -0.774776D-02
     28  0.170522D+00  0.142156D+00 -0.249342D+00  0.471728D-01 -0.131672D-01
     29 -0.260686D-01 -0.217321D-01  0.471728D-01  0.520174D-01  0.201294D-02
     30  0.727646D-02  0.606604D-02 -0.131672D-01  0.201294D-02  0.586671D-01
     31  0.312575D+00  0.581936D+00 -0.222354D+00  0.339924D-01 -0.948822D-02
     32  0.513058D+00  0.493123D+00 -0.208312D+00  0.618472D-01 -0.172633D-01
     33 -0.784337D-01 -0.753862D-01  0.618472D-01  0.186794D+00  0.263912D-02
     34  0.218930D-01  0.210424D-01 -0.172633D-01  0.263912D-02  0.195512D+00
     35  0.387705D+00  0.405783D+00 -0.413809D+00  0.103665D+00 -0.289358D-01
     36  0.100432D+00  0.324683D+00 -0.109709D+00 -0.236322D-01 -0.468144D-02
     37  0.940929D-01  0.322894D+00 -0.971666D-01  0.148543D-01  0.713160D-02
     38 -0.778865D-01 -0.219881D-01  0.119114D+00  0.205326D+00  0.657592D-02
     39  0.217403D-01  0.613748D-02 -0.332481D-01  0.657592D-02  0.227050D+00
     40 -0.332354D-02 -0.938266D-03  0.657592D-02  0.876162D-02 -0.347102D-01
     41  0.100000D+01  0.658292D+00  0.000000D+00  0.000000D+00  0.000000D+00
     42  0.658292D+00  0.100000D+01  0.000000D+00  0.000000D+00  0.000000D+00
     43  0.000000D+00  0.000000D+00  0.100000D+01  0.000000D+00  0.000000D+00
     44  0.000000D+00  0.000000D+00  0.000000D+00  0.100000D+01  0.000000D+00
     45  0.000000D+00  0.000000D+00  0.000000D+00  0.000000D+00  0.100000D+01
     46  0.131991D-01  0.130501D+00 -0.122849D-01 -0.486374D-03  0.721723D-02
     47  0.130501D+00  0.369833D+00 -0.781575D-01 -0.309435D-02  0.459166D-01
     48  0.122849D-01  0.781575D-01 -0.102670D-01 -0.451271D-03  0.669635D-02
     49  0.486374D-03  0.309435D-02 -0.451271D-03  0.111342D-02  0.265117D-03
     50 -0.721723D-02 -0.459166D-01  0.669635D-02  0.265117D-03 -0.280275D-02
               21            22            23            24            25 
     21  0.100000D+01
     22  0.658292D+00  0.100000D+01
     23  0.000000D+00  0.000000D+00  0.100000D+01
     24  0.000000D+00  0.000000D+00  0.000000D+00  0.100000D+01
     25  0.000000D+00  0.000000D+00  0.000000D+00  0.000000D+00  0.100000D+01
     26  0.176299D-01  0.575450D-01  0.889299D-02  0.476357D-02 -0.196683D-01
     27  0.156250D+00  0.324704D+00  0.887901D-01  0.475608D-01 -0.196374D+00
     28 -0.805631D-01 -0.587813D-01  0.160619D-01 -0.320711D-01  0.132418D+00
     29 -0.431540D-01 -0.314865D-01 -0.320711D-01  0.587555D-01  0.709306D-01
     30  0.178179D+00  0.130005D+00  0.132418D+00  0.709306D-01 -0.216931D+00
     31  0.341496D+00  0.609128D+00  0.951585D-01  0.509721D-01 -0.210459D+00
     32 -0.217627D+00 -0.200265D+00  0.149293D+00 -0.359823D-01  0.148567D+00
     33 -0.116573D+00 -0.107273D+00 -0.359823D-01  0.197193D+00  0.795808D-01
     34  0.481318D+00  0.442921D+00  0.148567D+00  0.795808D-01 -0.112115D+00
     35  0.163307D+00  0.356225D+00 -0.385484D-01  0.470794D-01 -0.194386D+00
     36  0.125446D+00  0.346753D+00  0.580041D-01 -0.366579D-01 -0.128286D+00
     37  0.369925D+00  0.407915D+00  0.250996D+00  0.134447D+00 -0.275476D+00
     38  0.492606D-01  0.123235D-01 -0.197679D-01 -0.886704D-01 -0.860036D-01
     39 -0.203393D+00 -0.508827D-01  0.816198D-01 -0.860036D-01  0.245601D+00
     40 -0.108948D+00 -0.272556D-01 -0.860036D-01  0.196109D+00  0.131557D+00
     41  0.131991D-01  0.130501D+00  0.122849D-01  0.486374D-03 -0.721723D-02
     42  0.130501D+00  0.369833D+00  0.781575D-01  0.309435D-02 -0.459166D-01
     43 -0.122849D-01 -0.781575D-01 -0.102670D-01 -0.451271D-03  0.669635D-02
     44 -0.486374D-03 -0.309435D-02 -0.451271D-03  0.111342D-02  0.265117D-03
     45  0.721723D-02  0.459166D-01  0.669635D-02  0.265117D-03 -0.280275D-02
     46  0.100000D+01  0.658292D+00  0.000000D+00  0.000000D+00  0.000000D+00
     47  0.658292D+00  0.100000D+01  0.000000D+00  0.000000D+00  0.000000D+00
     48  0.000000D+00  0.000000D+00  0.100000D+01  0.000000D+00  0.000000D+00
     49  0.000000D+00  0.000000D+00  0.000000D+00  0.100000D+01  0.000000D+00
     50  0.000000D+00  0.000000D+00  0.000000D+00  0.000000D+00  0.100000D+01
               26            27            28            29            30 
     26  0.100000D+01
     27  0.233690D+00  0.100000D+01
     28  0.000000D+00  0.000000D+00  0.100000D+01
     29  0.000000D+00  0.000000D+00  0.000000D+00  0.100000D+01
     30  0.000000D+00  0.000000D+00  0.000000D+00  0.000000D+00  0.100000D+01
     31  0.167280D+00  0.763641D+00  0.000000D+00  0.000000D+00  0.000000D+00
     32  0.000000D+00  0.000000D+00  0.501521D+00  0.000000D+00  0.000000D+00
     33  0.000000D+00  0.000000D+00  0.000000D+00  0.501521D+00  0.000000D+00
     34  0.000000D+00  0.000000D+00  0.000000D+00  0.000000D+00  0.501521D+00
     35  0.335315D-01  0.547066D+00  0.000000D+00  0.000000D+00  0.000000D+00
     36  0.335315D-01  0.547066D+00  0.000000D+00  0.000000D+00  0.000000D+00
     37  0.335315D-01  0.547066D+00  0.000000D+00  0.000000D+00  0.000000D+00
     38  0.000000D+00  0.000000D+00  0.000000D+00  0.000000D+00  0.000000D+00
     39  0.000000D+00  0.000000D+00  0.000000D+00  0.000000D+00  0.000000D+00
     40  0.000000D+00  0.000000D+00  0.000000D+00  0.000000D+00  0.000000D+00
     41  0.134713D-01  0.130299D+00  0.170522D+00 -0.260686D-01  0.727646D-02
     42  0.535711D-01  0.305066D+00  0.142156D+00 -0.217321D-01  0.606604D-02
     43 -0.148022D-01 -0.181567D+00 -0.249342D+00  0.471728D-01 -0.131672D-01
     44  0.226288D-02  0.277571D-01  0.471728D-01  0.520174D-01  0.201294D-02
     45 -0.631632D-03 -0.774776D-02 -0.131672D-01  0.201294D-02  0.586671D-01
     46  0.176299D-01  0.156250D+00 -0.805631D-01 -0.431540D-01  0.178179D+00
     47  0.575450D-01  0.324704D+00 -0.587813D-01 -0.314865D-01  0.130005D+00
     48  0.889299D-02  0.887901D-01  0.160619D-01 -0.320711D-01  0.132418D+00
     49  0.476357D-02  0.475608D-01 -0.320711D-01  0.587555D-01  0.709306D-01
     50 -0.196683D-01 -0.196374D+00  0.132418D+00  0.709306D-01 -0.216931D+00
               31            32            33            34            35 
     31  0.100000D+01
     32  0.000000D+00  0.100000D+01
     33  0.000000D+00  0.000000D+00  0.100000D+01
     34  0.000000D+00  0.000000D+00  0.000000D+00  0.100000D+01
     35  0.699015D+00  0.000000D+00  0.000000D+00  0.000000D+00  0.100000D+01
     36  0.699015D+00  0.000000D+00  0.000000D+00  0.000000D+00  0.333333D+00
     37  0.699015D+00  0.000000D+00  0.000000D+00  0.000000D+00  0.333333D+00
     38  0.000000D+00  0.000000D+00  0.000000D+00  0.000000D+00  0.000000D+00
     39  0.000000D+00  0.000000D+00  0.000000D+00  0.000000D+00  0.000000D+00
     40  0.000000D+00  0.000000D+00  0.000000D+00  0.000000D+00  0.000000D+00
     41  0.312575D+00  0.513058D+00 -0.784337D-01  0.218930D-01  0.387705D+00
     42  0.581936D+00  0.493123D+00 -0.753862D-01  0.210424D-01  0.405783D+00
     43 -0.222354D+00 -0.208312D+00  0.618472D-01 -0.172633D-01 -0.413809D+00
     44  0.339924D-01  0.618472D-01  0.186794D+00  0.263912D-02  0.103665D+00
     45 -0.948822D-02 -0.172633D-01  0.263912D-02  0.195512D+00 -0.289358D-01
     46  0.341496D+00 -0.217627D+00 -0.116573D+00  0.481318D+00  0.163307D+00
     47  0.609128D+00 -0.200265D+00 -0.107273D+00  0.442921D+00  0.356225D+00
     48  0.951585D-01  0.149293D+00 -0.359823D-01  0.148567D+00 -0.385484D-01
     49  0.509721D-01 -0.359823D-01  0.197193D+00  0.795808D-01  0.470794D-01
     50 -0.210459D+00  0.148567D+00  0.795808D-01 -0.112115D+00 -0.194386D+00
               36            37            38            39            40 
     36  0.100000D+01
     37  0.333333D+00  0.100000D+01
     38  0.000000D+00  0.000000D+00  0.100000D+01
     39  0.000000D+00  0.000000D+00  0.000000D+00  0.100000D+01
     40  0.000000D+00  0.000000D+00  0.000000D+00  0.000000D+00  0.100000D+01
     41  0.100432D+00  0.940929D-01 -0.778865D-01  0.217403D-01 -0.332354D-02
     42  0.324683D+00  0.322894D+00 -0.219881D-01  0.613748D-02 -0.938266D-03
     43 -0.109709D+00 -0.971666D-01  0.119114D+00 -0.332481D-01  0.657592D-02
     44 -0.236322D-01  0.148543D-01  0.205326D+00  0.657592D-02  0.876162D-02
     45 -0.468144D-02  0.713160D-02  0.657592D-02  0.227050D+00 -0.347102D-01
     46  0.125446D+00  0.369925D+00  0.492606D-01 -0.203393D+00 -0.108948D+00
     47  0.346753D+00  0.407915D+00  0.123235D-01 -0.508827D-01 -0.272556D-01
     48  0.580041D-01  0.250996D+00 -0.197679D-01  0.816198D-01 -0.860036D-01
     49 -0.366579D-01  0.134447D+00 -0.886704D-01 -0.860036D-01  0.196109D+00
     50 -0.128286D+00 -0.275476D+00 -0.860036D-01  0.245601D+00  0.131557D+00
               41            42            43            44            45 
     41  0.100000D+01
     42  0.658292D+00  0.100000D+01
     43  0.000000D+00  0.000000D+00  0.100000D+01
     44  0.000000D+00  0.000000D+00  0.000000D+00  0.100000D+01
     45  0.000000D+00  0.000000D+00  0.000000D+00  0.000000D+00  0.100000D+01
     46  0.131991D-01  0.130501D+00 -0.122849D-01 -0.486374D-03  0.721723D-02
     47  0.130501D+00  0.369833D+00 -0.781575D-01 -0.309435D-02  0.459166D-01
     48  0.122849D-01  0.781575D-01 -0.102670D-01 -0.451271D-03  0.669635D-02
     49  0.486374D-03  0.309435D-02 -0.451271D-03  0.111342D-02  0.265117D-03
     50 -0.721723D-02 -0.459166D-01  0.669635D-02  0.265117D-03 -0.280275D-02
               46            47            48            49            50 
     46  0.100000D+01
     47  0.658292D+00  0.100000D+01
     48  0.000000D+00  0.000000D+00  0.100000D+01
     49  0.000000D+00  0.000000D+00  0.000000D+00  0.100000D+01
     50  0.000000D+00  0.000000D+00  0.000000D+00  0.000000D+00  0.100000D+01
 *** Kinetic Energy *** 
                1             2             3             4             5 
      1  0.295401D+02
      2 -0.218540D+01  0.171121D+01
      3  0.000000D+00  0.000000D+00  0.425188D+01
      4  0.000000D+00  0.000000D+00  0.000000D+00  0.425188D+01
      5  0.000000D+00  0.000000D+00  0.000000D+00  0.000000D+00  0.425188D+01
      6  0.131283D+00  0.480048D+00  0.000000D+00  0.000000D+00  0.000000D+00
      7  0.000000D+00  0.000000D+00  0.547243D+00  0.000000D+00  0.000000D+00
      8  0.000000D+00  0.000000D+00  0.000000D+00  0.547243D+00  0.000000D+00
      9  0.000000D+00  0.000000D+00  0.000000D+00  0.000000D+00  0.547243D+00
     10 -0.465828D+00  0.249764D+00  0.000000D+00  0.000000D+00  0.000000D+00
     11 -0.465828D+00  0.249764D+00  0.000000D+00  0.000000D+00  0.000000D+00
     12 -0.465828D+00  0.249764D+00  0.000000D+00  0.000000D+00  0.000000D+00
     13  0.000000D+00  0.000000D+00  0.000000D+00  0.000000D+00  0.000000D+00
     14  0.000000D+00  0.000000D+00  0.000000D+00  0.000000D+00  0.000000D+00
     15  0.000000D+00  0.000000D+00  0.000000D+00  0.000000D+00  0.000000D+00
     16 -0.229399D-01 -0.509998D-01  0.461027D-01  0.318621D-02  0.196728D-02
     17  0.127678D-01  0.716121D-01  0.739831D-01  0.511306D-02  0.315698D-02
     18  0.666995D-01 -0.193351D-01 -0.281009D+00 -0.185752D-01 -0.114690D-01
     19  0.460968D-02 -0.133627D-02 -0.185752D-01 -0.135201D-01 -0.792633D-03
     20  0.284618D-02 -0.825060D-03 -0.114690D-01 -0.792633D-03 -0.127258D-01
     21 -0.245548D-01 -0.354101D-01 -0.395508D-01  0.144335D-02  0.874732D-01
     22  0.156600D-01  0.846632D-01 -0.324621D-01  0.118465D-02  0.717953D-01
     23 -0.335308D-01  0.412845D-01 -0.678087D-01  0.286686D-02  0.173745D+00
     24  0.122366D-02 -0.150661D-02  0.286686D-02  0.106450D-01 -0.634055D-02
     25  0.741590D-01 -0.913076D-01  0.173745D+00 -0.634055D-02 -0.373516D+00
     26  0.145383D+00  0.624441D+00  0.000000D+00  0.286093D+01  0.000000D+00
     27  0.624441D+00  0.109252D+01  0.000000D+00  0.475924D+00  0.000000D+00
     28  0.000000D+00  0.000000D+00  0.284279D+01  0.000000D+00  0.000000D+00
     29 -0.286093D+01 -0.475924D+00  0.000000D+00  0.845484D+00  0.000000D+00
     30  0.000000D+00  0.000000D+00  0.000000D+00  0.000000D+00  0.284279D+01
     31  0.118429D+00  0.442224D+00  0.000000D+00  0.128073D+00  0.000000D+00
     32  0.000000D+00  0.000000D+00  0.509206D+00  0.000000D+00  0.000000D+00
     33 -0.978619D-01 -0.290596D+00  0.000000D+00  0.435629D+00  0.000000D+00
     34  0.000000D+00  0.000000D+00  0.000000D+00  0.000000D+00  0.509206D+00
     35 -0.398614D+00  0.174248D+00  0.000000D+00  0.994847D-01  0.000000D+00
     36  0.120641D+00  0.426765D+00  0.000000D+00 -0.130824D+01  0.000000D+00
     37 -0.398614D+00  0.174248D+00  0.000000D+00  0.994847D-01  0.000000D+00
     38  0.000000D+00  0.000000D+00 -0.144852D+01  0.000000D+00  0.000000D+00
     39  0.000000D+00  0.000000D+00  0.000000D+00  0.000000D+00  0.000000D+00
     40  0.000000D+00  0.000000D+00  0.000000D+00  0.000000D+00 -0.144852D+01
     41 -0.229399D-01 -0.509998D-01  0.461027D-01  0.318621D-02  0.196728D-02
     42  0.127678D-01  0.716121D-01  0.739831D-01  0.511306D-02  0.315698D-02
     43  0.666995D-01 -0.193351D-01 -0.281009D+00 -0.185752D-01 -0.114690D-01
     44  0.460968D-02 -0.133627D-02 -0.185752D-01 -0.135201D-01 -0.792633D-03
     45  0.284618D-02 -0.825060D-03 -0.114690D-01 -0.792633D-03 -0.127258D-01
     46 -0.245548D-01 -0.354101D-01 -0.395508D-01  0.144335D-02  0.874732D-01
     47  0.156600D-01  0.846632D-01 -0.324621D-01  0.118465D-02  0.717953D-01
     48 -0.335308D-01  0.412845D-01 -0.678087D-01  0.286686D-02  0.173745D+00
     49  0.122366D-02 -0.150661D-02  0.286686D-02  0.106450D-01 -0.634055D-02
     50  0.741590D-01 -0.913076D-01  0.173745D+00 -0.634055D-02 -0.373516D+00
                6             7             8             9            10 
      6  0.405009D+00
      7  0.000000D+00  0.675015D+00
      8  0.000000D+00  0.000000D+00  0.675015D+00
      9  0.000000D+00  0.000000D+00  0.000000D+00  0.675015D+00
     10  0.328083D+00  0.000000D+00  0.000000D+00  0.000000D+00  0.173333D+01
     11  0.328083D+00  0.000000D+00  0.000000D+00  0.000000D+00 -0.133333D+00
     12  0.328083D+00  0.000000D+00  0.000000D+00  0.000000D+00 -0.133333D+00
     13  0.000000D+00  0.000000D+00  0.000000D+00  0.000000D+00  0.000000D+00
     14  0.000000D+00  0.000000D+00  0.000000D+00  0.000000D+00  0.000000D+00
     15  0.000000D+00  0.000000D+00  0.000000D+00  0.000000D+00  0.000000D+00
     16  0.692562D-01  0.318569D+00  0.220167D-01  0.135939D-01  0.274752D+00
     17  0.120557D+00  0.202631D+00  0.140041D-01  0.864659D-02  0.121977D+00
     18 -0.143723D+00 -0.313453D+00 -0.304298D-01 -0.187884D-01 -0.853882D+00
     19 -0.993290D-02 -0.304298D-01  0.124747D+00 -0.129849D-02 -0.816351D-01
     20 -0.613292D-02 -0.187884D-01 -0.129849D-02  0.126048D+00 -0.504043D-01
     21  0.929367D-01 -0.148420D+00  0.541637D-02  0.328257D+00 -0.701395D-02
     22  0.134883D+00 -0.856301D-01  0.312494D-02  0.189385D+00  0.800445D-01
     23  0.683877D-01  0.768469D-01  0.287283D-02  0.174106D+00 -0.129226D+00
     24 -0.249570D-02  0.287283D-02  0.155464D+00 -0.635374D-02 -0.255106D-02
     25 -0.151251D+00  0.174106D+00 -0.635374D-02 -0.229497D+00 -0.154606D+00
     26  0.118429D+00  0.000000D+00  0.978619D-01  0.000000D+00 -0.398614D+00
     27  0.442224D+00  0.000000D+00  0.290596D+00  0.000000D+00  0.174248D+00
     28  0.000000D+00  0.509206D+00  0.000000D+00  0.000000D+00  0.000000D+00
     29 -0.128073D+00  0.000000D+00  0.435629D+00  0.000000D+00 -0.994847D-01
     30  0.000000D+00  0.000000D+00  0.000000D+00  0.509206D+00  0.000000D+00
     31  0.384124D+00  0.000000D+00  0.162409D+00  0.000000D+00  0.300195D+00
     32  0.000000D+00  0.645724D+00  0.000000D+00  0.000000D+00  0.000000D+00
     33 -0.162409D+00  0.000000D+00  0.588326D+00  0.000000D+00 -0.214142D+00
     34  0.000000D+00  0.000000D+00  0.000000D+00  0.645724D+00  0.000000D+00
     35  0.300195D+00  0.000000D+00  0.214142D+00  0.000000D+00  0.151000D+01
     36  0.329868D+00  0.000000D+00 -0.741800D-02  0.000000D+00 -0.346491D-01
     37  0.300195D+00  0.000000D+00  0.214142D+00  0.000000D+00 -0.144161D+00
     38  0.000000D+00 -0.204340D+00  0.000000D+00  0.000000D+00  0.000000D+00
     39  0.000000D+00  0.000000D+00  0.000000D+00  0.000000D+00  0.000000D+00
     40  0.000000D+00  0.000000D+00  0.000000D+00 -0.204340D+00  0.000000D+00
     41  0.692562D-01  0.318569D+00  0.220167D-01  0.135939D-01  0.274752D+00
     42  0.120557D+00  0.202631D+00  0.140041D-01  0.864659D-02  0.121977D+00
     43 -0.143723D+00 -0.313453D+00 -0.304298D-01 -0.187884D-01 -0.853882D+00
     44 -0.993290D-02 -0.304298D-01  0.124747D+00 -0.129849D-02 -0.816351D-01
     45 -0.613292D-02 -0.187884D-01 -0.129849D-02  0.126048D+00 -0.504043D-01
     46  0.929367D-01 -0.148420D+00  0.541637D-02  0.328257D+00 -0.701395D-02
     47  0.134883D+00 -0.856301D-01  0.312494D-02  0.189385D+00  0.800445D-01
     48  0.683877D-01  0.768469D-01  0.287283D-02  0.174106D+00 -0.129226D+00
     49 -0.249570D-02  0.287283D-02  0.155464D+00 -0.635374D-02 -0.255106D-02
     50 -0.151251D+00  0.174106D+00 -0.635374D-02 -0.229497D+00 -0.154606D+00
               11            12            13            14            15 
     11  0.173333D+01
     12 -0.133333D+00  0.173333D+01
     13  0.000000D+00  0.000000D+00  0.280000D+01
     14  0.000000D+00  0.000000D+00  0.000000D+00  0.280000D+01
     15  0.000000D+00  0.000000D+00  0.000000D+00  0.000000D+00  0.280000D+01
     16 -0.801863D-01 -0.812403D-01  0.426915D-01  0.263592D-01  0.182172D-02
     17  0.578241D-01  0.576336D-01  0.771625D-02  0.476428D-02  0.329265D-03
     18  0.951169D-01  0.989071D-01 -0.133924D+00 -0.826892D-01 -0.655075D-02
     19  0.291960D-01  0.683559D-02  0.272869D+00 -0.655075D-02  0.116437D-01
     20  0.405879D-02  0.181883D-01 -0.655075D-02  0.279433D+00  0.193120D-01
     21 -0.850912D-01  0.297227D+00 -0.494173D-02 -0.299491D+00  0.109295D-01
     22  0.693066D-01  0.121887D+00 -0.679633D-03 -0.411888D-01  0.150312D-02
     23 -0.386401D-01  0.492867D+00 -0.576729D-03 -0.349524D-01  0.151944D-01
     24  0.867707D-02 -0.179864D-01 -0.172201D+00  0.151944D-01  0.380852D+00
     25  0.854591D-01 -0.649647D+00  0.151944D-01  0.748396D+00 -0.273116D-01
     26  0.120641D+00 -0.398614D+00  0.000000D+00  0.000000D+00  0.000000D+00
     27  0.426765D+00  0.174248D+00  0.000000D+00  0.000000D+00  0.000000D+00
     28  0.000000D+00  0.000000D+00  0.144852D+01  0.000000D+00  0.000000D+00
     29  0.130824D+01 -0.994847D-01  0.000000D+00  0.000000D+00  0.000000D+00
     30  0.000000D+00  0.000000D+00  0.000000D+00  0.000000D+00  0.144852D+01
     31  0.329868D+00  0.300195D+00  0.000000D+00  0.000000D+00  0.000000D+00
     32  0.000000D+00  0.000000D+00  0.204340D+00  0.000000D+00  0.000000D+00
     33  0.741800D-02 -0.214142D+00  0.000000D+00  0.000000D+00  0.000000D+00
     34  0.000000D+00  0.000000D+00  0.000000D+00  0.000000D+00  0.204340D+00
     35 -0.346491D-01 -0.144161D+00  0.000000D+00  0.000000D+00  0.000000D+00
     36  0.973012D+00 -0.346491D-01  0.000000D+00  0.000000D+00  0.000000D+00
     37 -0.346491D-01  0.151000D+01  0.000000D+00  0.000000D+00  0.000000D+00
     38  0.000000D+00  0.000000D+00  0.187965D+01  0.000000D+00  0.000000D+00
     39  0.000000D+00  0.000000D+00  0.000000D+00  0.248125D+01  0.000000D+00
     40  0.000000D+00  0.000000D+00  0.000000D+00  0.000000D+00  0.187965D+01
     41 -0.801863D-01 -0.812403D-01  0.426915D-01  0.263592D-01  0.182172D-02
     42  0.578241D-01  0.576336D-01  0.771625D-02  0.476428D-02  0.329265D-03
     43  0.951169D-01  0.989071D-01 -0.133924D+00 -0.826892D-01 -0.655075D-02
     44  0.291960D-01  0.683559D-02  0.272869D+00 -0.655075D-02  0.116437D-01
     45  0.405879D-02  0.181883D-01 -0.655075D-02  0.279433D+00  0.193120D-01
     46 -0.850912D-01  0.297227D+00 -0.494173D-02 -0.299491D+00  0.109295D-01
     47  0.693066D-01  0.121887D+00 -0.679633D-03 -0.411888D-01  0.150312D-02
     48 -0.386401D-01  0.492867D+00 -0.576729D-03 -0.349524D-01  0.151944D-01
     49  0.867707D-02 -0.179864D-01 -0.172201D+00  0.151944D-01  0.380852D+00
     50  0.854591D-01 -0.649647D+00  0.151944D-01  0.748396D+00 -0.273116D-01
               16            17            18            19            20 
     16  0.139568D+01
     17  0.259735D+00  0.241917D+00
     18  0.000000D+00  0.000000D+00  0.275000D+01
     19  0.000000D+00  0.000000D+00  0.000000D+00  0.275000D+01
     20  0.000000D+00  0.000000D+00  0.000000D+00  0.000000D+00  0.275000D+01
     21 -0.222169D-01 -0.405816D-02  0.252701D-01  0.100047D-02 -0.148459D-01
     22 -0.405816D-02  0.301389D-01 -0.168192D-01 -0.665893D-03  0.988108D-02
     23 -0.252701D-01  0.168192D-01  0.358485D-01  0.163037D-02 -0.241929D-01
     24 -0.100047D-02  0.665893D-03  0.163037D-02 -0.526701D-02 -0.957826D-03
     25  0.148459D-01 -0.988108D-02 -0.241929D-01 -0.957826D-03  0.888148D-02
     26 -0.225772D-01  0.123534D-01  0.636312D-01 -0.972761D-02  0.271525D-02
     27 -0.526111D-01  0.697191D-01 -0.944517D-02  0.144393D-02 -0.403041D-03
     28  0.394780D-01  0.725686D-01 -0.254426D+00  0.366636D-01 -0.102338D-01
     29 -0.603520D-02 -0.110939D-01  0.366636D-01 -0.202038D-01  0.156450D-02
     30  0.168459D-02  0.309662D-02 -0.102338D-01  0.156450D-02 -0.150355D-01
     31  0.659484D-01  0.118437D+00 -0.139147D+00  0.212721D-01 -0.593765D-02
     32  0.309497D+00  0.199941D+00 -0.305771D+00  0.655195D-01 -0.182883D-01
     33 -0.473143D-01 -0.305660D-01  0.655195D-01  0.112794D+00  0.279582D-02
     34  0.132067D-01  0.853182D-02 -0.182883D-01  0.279582D-02  0.122030D+00
     35  0.254903D+00  0.119246D+00 -0.803929D+00  0.169401D+00 -0.472846D-01
     36 -0.733551D-01  0.572923D-01  0.725722D-01 -0.575953D-01  0.309678D-02
     37 -0.805983D-01  0.559253D-01  0.986245D-01 -0.150772D-01  0.171881D-01
     38 -0.889986D-01 -0.167971D-01  0.279838D+00  0.214487D+00  0.136596D-01
     39  0.248420D-01  0.468853D-02 -0.781107D-01  0.136596D-01  0.259611D+00
     40 -0.379772D-02 -0.716759D-03  0.136596D-01  0.915252D-02 -0.396880D-01
     41  0.139568D+01  0.259735D+00  0.000000D+00  0.000000D+00  0.000000D+00
     42  0.259735D+00  0.241917D+00  0.000000D+00  0.000000D+00  0.000000D+00
     43  0.000000D+00  0.000000D+00  0.275000D+01  0.000000D+00  0.000000D+00
     44  0.000000D+00  0.000000D+00  0.000000D+00  0.275000D+01  0.000000D+00
     45  0.000000D+00  0.000000D+00  0.000000D+00  0.000000D+00  0.275000D+01
     46 -0.222169D-01 -0.405816D-02  0.252701D-01  0.100047D-02 -0.148459D-01
     47 -0.405816D-02  0.301389D-01 -0.168192D-01 -0.665893D-03  0.988108D-02
     48 -0.252701D-01  0.168192D-01  0.358485D-01  0.163037D-02 -0.241929D-01
     49 -0.100047D-02  0.665893D-03  0.163037D-02 -0.526701D-02 -0.957826D-03
     50  0.148459D-01 -0.988108D-02 -0.241929D-01 -0.957826D-03  0.888148D-02
               21            22            23            24            25 
     21  0.139568D+01
     22  0.259735D+00  0.241917D+00
     23  0.000000D+00  0.000000D+00  0.275000D+01
     24  0.000000D+00  0.000000D+00  0.000000D+00  0.275000D+01
     25  0.000000D+00  0.000000D+00  0.000000D+00  0.000000D+00  0.275000D+01
     26 -0.241460D-01  0.145728D-01 -0.308578D-01 -0.165291D-01  0.682473D-01
     27 -0.421836D-01  0.797881D-01  0.271225D-01  0.145283D-01 -0.599860D-01
     28 -0.306180D-01 -0.310635D-01 -0.618721D-01 -0.335209D-01  0.138404D+00
     29 -0.164006D-01 -0.166393D-01 -0.335209D-01 -0.172485D-01  0.741370D-01
     30  0.677167D-01  0.687022D-01  0.138404D+00  0.741370D-01 -0.305398D+00
     31  0.839171D-01  0.129589D+00  0.635951D-01  0.340650D-01 -0.140651D+00
     32 -0.139039D+00 -0.830463D-01  0.706475D-01 -0.396485D-01  0.163705D+00
     33 -0.744768D-01 -0.444841D-01 -0.396485D-01  0.123428D+00  0.876894D-01
     34  0.307508D+00  0.183671D+00  0.163705D+00  0.876894D-01 -0.217395D+00
     35 -0.158889D-01  0.752549D-01 -0.114173D+00  0.299338D-01 -0.123594D+00
     36 -0.646329D-01  0.678650D-01 -0.119993D-01 -0.975183D-01  0.265385D-01
     37  0.250123D+00  0.115584D+00  0.426336D+00  0.228369D+00 -0.566808D+00
     38  0.634209D-01  0.961500D-02  0.943418D-02 -0.999624D-01 -0.195337D+00
     39 -0.261859D+00 -0.396994D-01 -0.389529D-01 -0.195337D+00  0.659257D+00
     40 -0.140266D+00 -0.212652D-01 -0.195337D+00  0.221084D+00  0.353134D+00
     41 -0.222169D-01 -0.405816D-02 -0.252701D-01 -0.100047D-02  0.148459D-01
     42 -0.405816D-02  0.301389D-01  0.168192D-01  0.665893D-03 -0.988108D-02
     43  0.252701D-01 -0.168192D-01  0.358485D-01  0.163037D-02 -0.241929D-01
     44  0.100047D-02 -0.665893D-03  0.163037D-02 -0.526701D-02 -0.957826D-03
     45 -0.148459D-01  0.988108D-02 -0.241929D-01 -0.957826D-03  0.888148D-02
     46  0.139568D+01  0.259735D+00  0.000000D+00  0.000000D+00  0.000000D+00
     47  0.259735D+00  0.241917D+00  0.000000D+00  0.000000D+00  0.000000D+00
     48  0.000000D+00  0.000000D+00  0.275000D+01  0.000000D+00  0.000000D+00
     49  0.000000D+00  0.000000D+00  0.000000D+00  0.275000D+01  0.000000D+00
     50  0.000000D+00  0.000000D+00  0.000000D+00  0.000000D+00  0.275000D+01
               26            27            28            29            30 
     26  0.295401D+02
     27 -0.218540D+01  0.171121D+01
     28  0.000000D+00  0.000000D+00  0.425188D+01
     29  0.000000D+00  0.000000D+00  0.000000D+00  0.425188D+01
     30  0.000000D+00  0.000000D+00  0.000000D+00  0.000000D+00  0.425188D+01
     31  0.131283D+00  0.480048D+00  0.000000D+00  0.000000D+00  0.000000D+00
     32  0.000000D+00  0.000000D+00  0.547243D+00  0.000000D+00  0.000000D+00
     33  0.000000D+00  0.000000D+00  0.000000D+00  0.547243D+00  0.000000D+00
     34  0.000000D+00  0.000000D+00  0.000000D+00  0.000000D+00  0.547243D+00
     35 -0.465828D+00  0.249764D+00  0.000000D+00  0.000000D+00  0.000000D+00
     36 -0.465828D+00  0.249764D+00  0.000000D+00  0.000000D+00  0.000000D+00
     37 -0.465828D+00  0.249764D+00  0.000000D+00  0.000000D+00  0.000000D+00
     38  0.000000D+00  0.000000D+00  0.000000D+00  0.000000D+00  0.000000D+00
     39  0.000000D+00  0.000000D+00  0.000000D+00  0.000000D+00  0.000000D+00
     40  0.000000D+00  0.000000D+00  0.000000D+00  0.000000D+00  0.000000D+00
     41 -0.225772D-01 -0.526111D-01  0.394780D-01 -0.603520D-02  0.168459D-02
     42  0.123534D-01  0.697191D-01  0.725686D-01 -0.110939D-01  0.309662D-02
     43  0.636312D-01 -0.944517D-02 -0.254426D+00  0.366636D-01 -0.102338D-01
     44 -0.972761D-02  0.144393D-02  0.366636D-01 -0.202038D-01  0.156450D-02
     45  0.271525D-02 -0.403041D-03 -0.102338D-01  0.156450D-02 -0.150355D-01
     46 -0.241460D-01 -0.421836D-01 -0.306180D-01 -0.164006D-01  0.677167D-01
     47  0.145728D-01  0.797881D-01 -0.310635D-01 -0.166393D-01  0.687022D-01
     48 -0.308578D-01  0.271225D-01 -0.618721D-01 -0.335209D-01  0.138404D+00
     49 -0.165291D-01  0.145283D-01 -0.335209D-01 -0.172485D-01  0.741370D-01
     50  0.682473D-01 -0.599860D-01  0.138404D+00  0.741370D-01 -0.305398D+00
               31            32            33            34            35 
     31  0.405009D+00
     32  0.000000D+00  0.675015D+00
     33  0.000000D+00  0.000000D+00  0.675015D+00
     34  0.000000D+00  0.000000D+00  0.000000D+00  0.675015D+00
     35  0.328083D+00  0.000000D+00  0.000000D+00  0.000000D+00  0.173333D+01
     36  0.328083D+00  0.000000D+00  0.000000D+00  0.000000D+00 -0.133333D+00
     37  0.328083D+00  0.000000D+00  0.000000D+00  0.000000D+00 -0.133333D+00
     38  0.000000D+00  0.000000D+00  0.000000D+00  0.000000D+00  0.000000D+00
     39  0.000000D+00  0.000000D+00  0.000000D+00  0.000000D+00  0.000000D+00
     40  0.000000D+00  0.000000D+00  0.000000D+00  0.000000D+00  0.000000D+00
     41  0.659484D-01  0.309497D+00 -0.473143D-01  0.132067D-01  0.254903D+00
     42  0.118437D+00  0.199941D+00 -0.305660D-01  0.853182D-02  0.119246D+00
     43 -0.139147D+00 -0.305771D+00  0.655195D-01 -0.182883D-01 -0.803929D+00
     44  0.212721D-01  0.655195D-01  0.112794D+00  0.279582D-02  0.169401D+00
     45 -0.593765D-02 -0.182883D-01  0.279582D-02  0.122030D+00 -0.472846D-01
     46  0.839171D-01 -0.139039D+00 -0.744768D-01  0.307508D+00 -0.158889D-01
     47  0.129589D+00 -0.830463D-01 -0.444841D-01  0.183671D+00  0.752549D-01
     48  0.635951D-01  0.706475D-01 -0.396485D-01  0.163705D+00 -0.114173D+00
     49  0.340650D-01 -0.396485D-01  0.123428D+00  0.876894D-01  0.299338D-01
     50 -0.140651D+00  0.163705D+00  0.876894D-01 -0.217395D+00 -0.123594D+00
               36            37            38            39            40 
     36  0.173333D+01
     37 -0.133333D+00  0.173333D+01
     38  0.000000D+00  0.000000D+00  0.280000D+01
     39  0.000000D+00  0.000000D+00  0.000000D+00  0.280000D+01
     40  0.000000D+00  0.000000D+00  0.000000D+00  0.000000D+00  0.280000D+01
     41 -0.733551D-01 -0.805983D-01 -0.889986D-01  0.248420D-01 -0.379772D-02
     42  0.572923D-01  0.559253D-01 -0.167971D-01  0.468853D-02 -0.716759D-03
     43  0.725722D-01  0.986245D-01  0.279838D+00 -0.781107D-01  0.136596D-01
     44 -0.575953D-01 -0.150772D-01  0.214487D+00  0.136596D-01  0.915252D-02
     45  0.309678D-02  0.171881D-01  0.136596D-01  0.259611D+00 -0.396880D-01
     46 -0.646329D-01  0.250123D+00  0.634209D-01 -0.261859D+00 -0.140266D+00
     47  0.678650D-01  0.115584D+00  0.961500D-02 -0.396994D-01 -0.212652D-01
     48 -0.119993D-01  0.426336D+00  0.943418D-02 -0.389529D-01 -0.195337D+00
     49 -0.975183D-01  0.228369D+00 -0.999624D-01 -0.195337D+00  0.221084D+00
     50  0.265385D-01 -0.566808D+00 -0.195337D+00  0.659257D+00  0.353134D+00
               41            42            43            44            45 
     41  0.139568D+01
     42  0.259735D+00  0.241917D+00
     43  0.000000D+00  0.000000D+00  0.275000D+01
     44  0.000000D+00  0.000000D+00  0.000000D+00  0.275000D+01
     45  0.000000D+00  0.000000D+00  0.000000D+00  0.000000D+00  0.275000D+01
     46 -0.222169D-01 -0.405816D-02  0.252701D-01  0.100047D-02 -0.148459D-01
     47 -0.405816D-02  0.301389D-01 -0.168192D-01 -0.665893D-03  0.988108D-02
     48 -0.252701D-01  0.168192D-01  0.358485D-01  0.163037D-02 -0.241929D-01
     49 -0.100047D-02  0.665893D-03  0.163037D-02 -0.526701D-02 -0.957826D-03
     50  0.148459D-01 -0.988108D-02 -0.241929D-01 -0.957826D-03  0.888148D-02
               46            47            48            49            50 
     46  0.139568D+01
     47  0.259735D+00  0.241917D+00
     48  0.000000D+00  0.000000D+00  0.275000D+01
     49  0.000000D+00  0.000000D+00  0.000000D+00  0.275000D+01
     50  0.000000D+00  0.000000D+00  0.000000D+00  0.000000D+00  0.275000D+01
 Entering OneElI...
 Calculate potential energy integrals
    NBasis =  50  MinDer = 0  MaxDer = 0
 Requested accuracy = 0.1000D-12
 PrsmSu:  NPrtUS=   2 ThrOK=T IAlg=1 NPAlg=2 LenDen=           0.
 Prism:   IPart=     0 DynPar=F LinDyn=F Incr=           6.
 PRISM was handed    67091257 working-precision words and   210 shell-pairs
 PRISM was handed    67091257 working-precision words and   210 shell-pairs
 IPart=  1 NShTot=         618 NBatch=         103 AvBLen=         6.0
 IPart=  0 NShTot=         642 NBatch=         107 AvBLen=         6.0
 PrSmSu:  NxtVal=             13.
 ***** Potential Energy ***** 
                1             2             3             4             5 
      1  0.798498D+02
      2  0.895197D+01  0.225515D+02
      3  0.160814D-01  0.109737D+00  0.231036D+02
      4  0.200265D+01  0.389823D+01  0.606191D-02  0.259766D+02
      5  0.327053D-01  0.223023D+00 -0.406548D-01  0.192715D-02  0.230843D+02
      6  0.825070D+01  0.152285D+02  0.106648D+00  0.238381D+01  0.214726D+00
      7  0.221599D-02  0.727164D-01  0.824050D+01  0.607524D-02 -0.396766D-01
      8  0.224226D+00  0.109568D+01  0.607524D-02  0.878607D+01  0.189127D-02
      9  0.450673D-02  0.146145D+00 -0.396766D-01  0.189127D-02  0.821950D+01
     10  0.108027D+01  0.939610D+01  0.195605D+00  0.651144D+00  0.100370D+00
     11  0.124684D+01  0.100736D+02  0.428718D-01  0.255488D+01  0.824464D-01
     12  0.108003D+01  0.937865D+01  0.999217D-02  0.646939D+00  0.319490D+00
     13  0.133297D-03  0.935999D-02  0.112782D+01  0.742562D-01 -0.552005D-03
     14 -0.896202D-03 -0.625145D-01  0.173846D+00 -0.552005D-03  0.173070D-01
     15  0.424606D-04  0.296591D-02 -0.552005D-03  0.142801D+00  0.112053D+01
     16  0.664961D+00  0.233138D+01  0.275516D+01  0.410427D+00  0.132795D+00
     17  0.265188D+01  0.583752D+01  0.229075D+01  0.100598D+01  0.173207D+00
     18 -0.710441D+00 -0.329945D+01 -0.429396D+01 -0.606396D+00 -0.237168D+00
     19 -0.403655D-01 -0.143828D+00 -0.266060D+00  0.875105D+00 -0.123777D-01
     20 -0.301424D-01 -0.132173D+00 -0.209579D+00 -0.249936D-01  0.873255D+00
     21  0.937506D+00  0.299117D+01 -0.138557D+01  0.340748D+00  0.310862D+01
     22  0.290039D+01  0.632376D+01 -0.908394D+00  0.953383D+00  0.218795D+01
     23  0.486964D+00  0.179338D+01  0.134432D+00  0.188417D+00  0.248248D+01
     24 -0.298207D-02  0.571589D-01 -0.111404D-01  0.128601D+01  0.244790D-01
     25 -0.107635D+01 -0.393885D+01  0.244779D+01 -0.415609D+00 -0.421151D+01
     26  0.147693D+02  0.142804D+02  0.102550D-01  0.226537D+02  0.196720D-01
     27  0.142888D+02  0.202249D+02  0.992131D-01  0.870939D+01  0.195628D+00
     28  0.102029D-01  0.993645D-01  0.190421D+02  0.459350D-01 -0.340586D-01
     29 -0.226675D+02 -0.876315D+01 -0.445471D-01  0.940030D+01 -0.985363D-01
     30  0.204100D-01  0.193487D+00 -0.340586D-01  0.787759D-01  0.190231D+02
     31  0.780907D+01  0.147157D+02  0.102535D+00  0.436720D+01  0.203840D+00
     32  0.209129D-02  0.700933D-01  0.788884D+01  0.136647D-01 -0.376024D-01
     33 -0.362813D+01 -0.507130D+01 -0.379137D-01  0.656899D+01 -0.861168D-01
     34  0.424229D-02  0.138898D+00 -0.376024D-01  0.164210D-01  0.786780D+01
     35  0.927731D+00  0.862697D+01  0.178429D+00  0.302162D+01  0.890966D-01
     36  0.621696D+01  0.109459D+02  0.542367D-01 -0.512640D+01  0.112961D+00
     37  0.927518D+00  0.860929D+01  0.102179D-01  0.301350D+01  0.283086D+00
     38 -0.464800D-02 -0.493744D-01 -0.833013D+01  0.491871D-01  0.271078D-01
     39 -0.758724D-03 -0.551152D-01  0.154320D+00 -0.115430D-01  0.176979D-01
     40 -0.959350D-02 -0.114244D+00  0.271078D-01  0.951481D-01 -0.832296D+01
     41  0.664961D+00  0.233138D+01  0.275516D+01  0.410427D+00  0.132795D+00
     42  0.265188D+01  0.583752D+01  0.229075D+01  0.100598D+01  0.173207D+00
     43 -0.710441D+00 -0.329945D+01 -0.429396D+01 -0.606396D+00 -0.237168D+00
     44 -0.403655D-01 -0.143828D+00 -0.266060D+00  0.875105D+00 -0.123777D-01
     45 -0.301424D-01 -0.132173D+00 -0.209579D+00 -0.249936D-01  0.873255D+00
     46  0.937506D+00  0.299117D+01 -0.138557D+01  0.340748D+00  0.310862D+01
     47  0.290039D+01  0.632376D+01 -0.908394D+00  0.953383D+00  0.218795D+01
     48  0.486964D+00  0.179338D+01  0.134432D+00  0.188417D+00  0.248248D+01
     49 -0.298207D-02  0.571589D-01 -0.111404D-01  0.128601D+01  0.244790D-01
     50 -0.107635D+01 -0.393885D+01  0.244779D+01 -0.415609D+00 -0.421151D+01
                6             7             8             9            10 
      6  0.148328D+02
      7  0.187753D+00  0.106289D+02
      8  0.106026D+01  0.199229D-01  0.105613D+02
      9  0.343864D+00 -0.113377D+00  0.557316D-02  0.105343D+02
     10  0.988586D+01  0.322870D+00  0.414668D+00  0.141449D+00  0.139397D+02
     11  0.102273D+02  0.565301D-01  0.140106D+01  0.103297D+00  0.468969D+01
     12  0.984626D+01 -0.124876D-01  0.404954D+00  0.461253D+00  0.461691D+01
     13  0.185671D-01  0.718226D+00  0.979130D-01 -0.109205D-02  0.273970D-01
     14 -0.118398D+00  0.244996D+00 -0.109205D-02 -0.216291D-01 -0.887904D-01
     15  0.567258D-02 -0.109205D-02  0.178915D+00  0.701400D+00  0.256568D-02
     16  0.396953D+01  0.576024D+01  0.528550D+00  0.269672D+00  0.518778D+01
     17  0.741891D+01  0.479233D+01  0.808978D+00  0.355203D+00  0.541471D+01
     18 -0.352779D+01 -0.341916D+01 -0.506616D+00 -0.250863D+00 -0.609561D+01
     19 -0.116875D+00 -0.218976D+00  0.205003D+01 -0.103025D-01 -0.494827D+00
     20 -0.127242D+00 -0.198076D+00 -0.189284D-01  0.205018D+01 -0.372051D+00
     21  0.459221D+01 -0.253893D+01  0.252199D+00  0.568074D+01  0.235092D+01
     22  0.791124D+01 -0.184509D+01  0.588018D+00  0.445832D+01  0.484292D+01
     23  0.168434D+01  0.141721D+01  0.102609D+00  0.220016D+01 -0.307753D+00
     24  0.102145D+00 -0.412383D-01  0.242319D+01  0.917160D-01  0.148985D-01
     25 -0.365929D+01  0.214222D+01 -0.224311D+00 -0.237619D+01 -0.298072D+01
     26  0.780447D+01  0.210974D-02  0.362471D+01  0.397942D-02  0.927004D+00
     27  0.147032D+02  0.704187D-01  0.502661D+01  0.133673D+00  0.862518D+01
     28  0.103067D+00  0.787815D+01  0.393803D-01 -0.350982D-01  0.178098D+00
     29 -0.442312D+01 -0.124655D-01  0.654879D+01 -0.356639D-01 -0.305087D+01
     30  0.195535D+00 -0.350982D-01  0.626963D-01  0.785493D+01  0.880221D-01
     31  0.144950D+02  0.184447D+00  0.359636D+01  0.329929D+00  0.950264D+01
     32  0.184447D+00  0.103487D+02  0.470948D-01 -0.108077D+00  0.311844D+00
     33 -0.369509D+01 -0.456878D-01  0.922983D+01 -0.113812D+00 -0.338702D+01
     34  0.329929D+00 -0.108077D+00  0.521521D-01  0.102527D+02  0.134715D+00
     35  0.949054D+01  0.308706D+00  0.333401D+01  0.130347D+00  0.128255D+02
     36  0.103329D+02  0.566634D-01  0.692290D+00  0.111540D+00  0.523700D+01
     37  0.944778D+01 -0.698464D-02  0.331435D+01  0.422853D+00  0.424619D+01
     38 -0.380225D-01 -0.249420D+01  0.790174D-01  0.310966D-01 -0.122719D+00
     39 -0.106508D+00  0.225768D+00 -0.224804D-01 -0.120977D-01 -0.784496D-01
     40 -0.107155D+00  0.310966D-01  0.139291D+00 -0.249098D+01 -0.665932D-01
     41  0.396953D+01  0.576024D+01  0.528550D+00  0.269672D+00  0.518778D+01
     42  0.741891D+01  0.479233D+01  0.808978D+00  0.355203D+00  0.541471D+01
     43 -0.352779D+01 -0.341916D+01 -0.506616D+00 -0.250863D+00 -0.609561D+01
     44 -0.116875D+00 -0.218976D+00  0.205003D+01 -0.103025D-01 -0.494827D+00
     45 -0.127242D+00 -0.198076D+00 -0.189284D-01  0.205018D+01 -0.372051D+00
     46  0.459221D+01 -0.253893D+01  0.252199D+00  0.568074D+01  0.235092D+01
     47  0.791124D+01 -0.184509D+01  0.588018D+00  0.445832D+01  0.484292D+01
     48  0.168434D+01  0.141721D+01  0.102609D+00  0.220016D+01 -0.307753D+00
     49  0.102145D+00 -0.412383D-01  0.242319D+01  0.917160D-01  0.148985D-01
     50 -0.365929D+01  0.214222D+01 -0.224311D+00 -0.237619D+01 -0.298072D+01
               11            12            13            14            15 
     11  0.144982D+02
     12  0.467933D+01  0.138635D+02
     13  0.129742D-01  0.289771D-02  0.140691D+02
     14 -0.267117D-01 -0.166876D+00  0.444389D-02  0.138507D+02
     15  0.386770D-02  0.702887D-02 -0.462661D-01  0.501897D-02  0.140380D+02
     16  0.135598D+01  0.129110D+01  0.645080D+00  0.314799D+00  0.298141D-01
     17  0.448122D+01  0.431880D+01  0.336820D+00  0.873415D-01  0.195842D-01
     18 -0.151625D+01 -0.142871D+01 -0.998856D+00 -0.496925D+00 -0.560108D-01
     19  0.213373D+00 -0.706003D-01  0.276512D+01 -0.338335D-01  0.125696D+00
     20 -0.600159D-01  0.924930D-01 -0.500769D-01  0.278658D+01  0.240377D+00
     21  0.166135D+01  0.533468D+01 -0.134335D+00 -0.289277D+01  0.300666D+00
     22  0.482379D+01  0.557546D+01 -0.875802D-01 -0.712529D+00  0.214416D+00
     23  0.771610D+00  0.380331D+01  0.196175D-01  0.842451D+00  0.224746D+00
     24  0.162140D+00  0.257568D-01 -0.145646D+01 -0.108039D-01  0.324599D+01
     25 -0.169218D+01 -0.462818D+01  0.222031D+00  0.377604D+01 -0.373744D+00
     26  0.621046D+01  0.926753D+00  0.471107D-02 -0.688110D-03  0.869039D-02
     27  0.109114D+02  0.860711D+01  0.515462D-01 -0.543641D-01  0.829064D-01
     28  0.552803D-01  0.108906D-01  0.827407D+01  0.152459D+00 -0.159646D-01
     29  0.506139D+01 -0.304817D+01  0.493935D-01  0.218948D-01  0.916088D-01
     30  0.976001D-01  0.279400D+00 -0.159646D-01  0.188631D-01  0.825678D+01
     31  0.103140D+02  0.946272D+01  0.413270D-01 -0.112346D+00  0.482250D-01
     32  0.573588D-01 -0.110355D-01  0.241291D+01  0.233333D+00 -0.860453D-02
     33 -0.773507D+00 -0.337974D+01  0.785597D-01  0.479089D-01  0.151030D+00
     34  0.101203D+00  0.438818D+00 -0.860453D-02 -0.191141D-01  0.239075D+01
     35  0.521452D+01  0.424619D+01  0.111681D+00 -0.784496D-01  0.446949D-01
     36  0.111620D+02  0.522813D+01 -0.171640D-01 -0.361732D-01 -0.526057D-01
     37  0.520097D+01  0.127463D+02  0.118168D-01 -0.147196D+00  0.139190D+00
     38  0.190698D-01  0.593302D-02  0.990502D+01 -0.115343D+00 -0.308695D-01
     39 -0.271292D-01 -0.147196D+00  0.774138D-01  0.127386D+02  0.204674D-01
     40  0.156509D-01 -0.217413D+00 -0.308695D-01  0.102763D-01  0.988521D+01
     41  0.135598D+01  0.129110D+01  0.645080D+00  0.314799D+00  0.298141D-01
     42  0.448122D+01  0.431880D+01  0.336820D+00  0.873415D-01  0.195842D-01
     43 -0.151625D+01 -0.142871D+01 -0.998856D+00 -0.496925D+00 -0.560108D-01
     44  0.213373D+00 -0.706003D-01  0.276512D+01 -0.338335D-01  0.125696D+00
     45 -0.600159D-01  0.924930D-01 -0.500769D-01  0.278658D+01  0.240377D+00
     46  0.166135D+01  0.533468D+01 -0.134335D+00 -0.289277D+01  0.300666D+00
     47  0.482379D+01  0.557546D+01 -0.875802D-01 -0.712529D+00  0.214416D+00
     48  0.771610D+00  0.380331D+01  0.196175D-01  0.842451D+00  0.224746D+00
     49  0.162140D+00  0.257568D-01 -0.145646D+01 -0.108039D-01  0.324599D+01
     50 -0.169218D+01 -0.462818D+01  0.222031D+00  0.377604D+01 -0.373744D+00
               16            17            18            19            20 
     16  0.111542D+02
     17  0.662916D+01  0.856427D+01
     18 -0.177556D+01 -0.154522D+01  0.107629D+02
     19  0.658764D-01  0.573507D-01 -0.388665D-01  0.974238D+01
     20 -0.301171D-01 -0.259763D-01  0.294203D-01 -0.224161D-02  0.973823D+01
     21  0.193559D+00  0.160501D+01 -0.194222D+00 -0.448063D-02  0.877053D-01
     22  0.154694D+01  0.397184D+01 -0.122350D+01 -0.142557D-01  0.446739D+00
     23  0.173340D+00  0.101482D+01 -0.156924D+00 -0.491676D-02  0.852046D-01
     24  0.103206D-01  0.791095D-01 -0.940789D-02  0.149817D-01  0.416907D-02
     25 -0.130799D+00 -0.915116D+00  0.123034D+00  0.302831D-02 -0.415831D-01
     26  0.633532D+00  0.261731D+01 -0.656081D+00  0.916147D-01 -0.278446D-01
     27  0.226409D+01  0.577921D+01 -0.317578D+01  0.398372D+00 -0.127409D+00
     28  0.265743D+01  0.226237D+01 -0.409815D+01  0.661463D+00 -0.200214D+00
     29 -0.631714D+00 -0.121353D+01  0.101086D+01  0.732015D+00  0.408811D-01
     30  0.127668D+00  0.167330D+00 -0.226000D+00  0.299138D-01  0.833935D+00
     31  0.390817D+01  0.736332D+01 -0.346942D+01  0.395378D+00 -0.125283D+00
     32  0.566505D+01  0.475086D+01 -0.336122D+01  0.652619D+00 -0.194821D+00
     33 -0.100452D+01 -0.124384D+01  0.958557D+00  0.191768D+01  0.340916D-01
     34  0.265049D+00  0.349274D+00 -0.246402D+00  0.289222D-01  0.201328D+01
     35  0.501465D+01  0.534695D+01 -0.586630D+01  0.121754D+01 -0.358252D+00
     36  0.140871D+01  0.448086D+01 -0.163730D+01 -0.329187D+00 -0.646556D-01
     37  0.125371D+01  0.426668D+01 -0.137612D+01  0.180837D+00  0.886195D-01
     38 -0.118251D+01 -0.500474D+00  0.185875D+01  0.240793D+01  0.918838D-01
     39  0.303538D+00  0.872957D-01 -0.477605D+00  0.807088D-01  0.267926D+01
     40 -0.573278D-01 -0.525418D-01  0.107018D+00  0.109462D+00 -0.459629D+00
     41  0.111542D+02  0.662916D+01 -0.177556D+01  0.658764D-01 -0.301171D-01
     42  0.662916D+01  0.856427D+01 -0.154522D+01  0.573507D-01 -0.259763D-01
     43 -0.177556D+01 -0.154522D+01  0.107629D+02 -0.388665D-01  0.294203D-01
     44  0.658764D-01  0.573507D-01 -0.388665D-01  0.974238D+01 -0.224161D-02
     45 -0.301171D-01 -0.259763D-01  0.294203D-01 -0.224161D-02  0.973823D+01
     46  0.193559D+00  0.160501D+01 -0.194222D+00 -0.448063D-02  0.877053D-01
     47  0.154694D+01  0.397184D+01 -0.122350D+01 -0.142557D-01  0.446739D+00
     48  0.173340D+00  0.101482D+01 -0.156924D+00 -0.491676D-02  0.852046D-01
     49  0.103206D-01  0.791095D-01 -0.940789D-02  0.149817D-01  0.416907D-02
     50 -0.130799D+00 -0.915116D+00  0.123034D+00  0.302831D-02 -0.415831D-01
               21            22            23            24            25 
     21  0.115712D+02
     22  0.688975D+01  0.881537D+01
     23  0.853673D+00  0.739904D+00  0.103097D+02
     24  0.189979D+00  0.164770D+00  0.478105D-01  0.101123D+02
     25 -0.177039D+01 -0.153343D+01 -0.459186D+00 -0.104238D+00  0.110782D+02
     26  0.838719D+00  0.281596D+01  0.405281D+00  0.202490D+00 -0.895821D+00
     27  0.279746D+01  0.618777D+01  0.164641D+01  0.749326D+00 -0.361654D+01
     28 -0.127367D+01 -0.882800D+00  0.122351D+00 -0.481311D+00  0.219808D+01
     29 -0.988601D+00 -0.144184D+01 -0.693070D+00  0.827819D+00  0.152438D+01
     30  0.285739D+01  0.212362D+01  0.222902D+01  0.107262D+01 -0.377986D+01
     31  0.443252D+01  0.778318D+01  0.162214D+01  0.681401D+00 -0.352445D+01
     32 -0.244381D+01 -0.180892D+01  0.135801D+01 -0.419397D+00  0.205874D+01
     33 -0.149096D+01 -0.158999D+01 -0.584251D+00  0.206503D+01  0.126849D+01
     34  0.546802D+01  0.437012D+01  0.211429D+01  0.933647D+00 -0.228755D+01
     35  0.218767D+01  0.472151D+01 -0.277563D+00  0.597738D+00 -0.273245D+01
     36  0.181402D+01  0.482146D+01  0.914061D+00 -0.484394D+00 -0.200458D+01
     37  0.493327D+01  0.542390D+01  0.348156D+01  0.168589D+01 -0.424241D+01
     38  0.731123D+00  0.234153D+00 -0.191361D+00 -0.104501D+01 -0.129378D+01
     39 -0.266152D+01 -0.682611D+00  0.768008D+00 -0.106027D+01  0.345535D+01
     40 -0.163888D+01 -0.582665D+00 -0.131544D+01  0.232909D+01  0.210514D+01
     41  0.193559D+00  0.154694D+01  0.173340D+00  0.103206D-01 -0.130799D+00
     42  0.160501D+01  0.397184D+01  0.101482D+01  0.791095D-01 -0.915116D+00
     43 -0.194222D+00 -0.122350D+01 -0.156924D+00 -0.940789D-02  0.123034D+00
     44 -0.448063D-02 -0.142557D-01 -0.491676D-02  0.149817D-01  0.302831D-02
     45  0.877053D-01  0.446739D+00  0.852046D-01  0.416907D-02 -0.415831D-01
     46  0.115712D+02  0.688975D+01  0.853673D+00  0.189979D+00 -0.177039D+01
     47  0.688975D+01  0.881537D+01  0.739904D+00  0.164770D+00 -0.153343D+01
     48  0.853673D+00  0.739904D+00  0.103097D+02  0.478105D-01 -0.459186D+00
     49  0.189979D+00  0.164770D+00  0.478105D-01  0.101123D+02 -0.104238D+00
     50 -0.177039D+01 -0.153343D+01 -0.459186D+00 -0.104238D+00  0.110782D+02
               26            27            28            29            30 
     26  0.798187D+02
     27  0.894470D+01  0.225204D+02
     28  0.162346D-01  0.110769D+00  0.230695D+02
     29 -0.201163D+01 -0.395947D+01 -0.471504D-02  0.259560D+02
     30  0.305175D-01  0.208141D+00 -0.358752D-01 -0.219796D-01  0.230458D+02
     31  0.824550D+01  0.152050D+02  0.107526D+00 -0.244296D+01  0.200830D+00
     32  0.223710D-02  0.732980D-01  0.822243D+01 -0.486869D-02 -0.353535D-01
     33 -0.225464D+00 -0.113597D+01 -0.486869D-02  0.878100D+01 -0.217057D-01
     34  0.420526D-02  0.136745D+00 -0.353535D-01 -0.217057D-01  0.819765D+01
     35  0.107919D+01  0.937648D+01  0.192817D+00 -0.682515D+00  0.932868D-01
     36  0.124593D+01  0.100660D+02  0.427798D-01 -0.262496D+01  0.813696D-01
     37  0.107889D+01  0.935524D+01  0.150139D-01 -0.683689D+00  0.294732D+00
     38 -0.103423D-03 -0.731221D-02 -0.118215D+01  0.740969D-01  0.109063D-01
     39 -0.790022D-03 -0.552549D-01  0.161577D+00  0.109063D-01  0.260048D-01
     40 -0.483936D-03 -0.338632D-01  0.109063D-01  0.140936D+00 -0.118418D+01
     41  0.633532D+00  0.226409D+01  0.265743D+01 -0.631714D+00  0.127668D+00
     42  0.261731D+01  0.577921D+01  0.226237D+01 -0.121353D+01  0.167330D+00
     43 -0.656081D+00 -0.317578D+01 -0.409815D+01  0.101086D+01 -0.226000D+00
     44  0.916147D-01  0.398372D+00  0.661463D+00  0.732015D+00  0.299138D-01
     45 -0.278446D-01 -0.127409D+00 -0.200214D+00  0.408811D-01  0.833935D+00
     46  0.838719D+00  0.279746D+01 -0.127367D+01 -0.988601D+00  0.285739D+01
     47  0.281596D+01  0.618777D+01 -0.882800D+00 -0.144184D+01  0.212362D+01
     48  0.405281D+00  0.164641D+01  0.122351D+00 -0.693070D+00  0.222902D+01
     49  0.202490D+00  0.749326D+00 -0.481311D+00  0.827819D+00  0.107262D+01
     50 -0.895821D+00 -0.361654D+01  0.219808D+01  0.152438D+01 -0.377986D+01
               31            32            33            34            35 
     31  0.148075D+02
     32  0.188110D+00  0.106022D+02
     33 -0.115808D+01 -0.185765D-01  0.105679D+02
     34  0.328151D+00 -0.105716D+00 -0.657335D-01  0.105021D+02
     35  0.986068D+01  0.316427D+00 -0.462910D+00  0.132414D+00  0.138968D+02
     36  0.102242D+02  0.561330D-01 -0.149122D+01  0.106237D+00  0.468668D+01
     37  0.981524D+01 -0.417262D-02 -0.464066D+00  0.428276D+00  0.460078D+01
     38 -0.152930D-01 -0.801783D+00  0.972253D-01  0.235082D-01 -0.377533D-01
     39 -0.106371D+00  0.229348D+00  0.235082D-01 -0.722719D-02 -0.788652D-01
     40 -0.654403D-01  0.235082D-01  0.184008D+00 -0.803785D+00 -0.241113D-01
     41  0.390817D+01  0.566505D+01 -0.100452D+01  0.265049D+00  0.501465D+01
     42  0.736332D+01  0.475086D+01 -0.124384D+01  0.349274D+00  0.534695D+01
     43 -0.346942D+01 -0.336122D+01  0.958557D+00 -0.246402D+00 -0.586630D+01
     44  0.395378D+00  0.652619D+00  0.191768D+01  0.289222D-01  0.121754D+01
     45 -0.125283D+00 -0.194821D+00  0.340916D-01  0.201328D+01 -0.358252D+00
     46  0.443252D+01 -0.244381D+01 -0.149096D+01  0.546802D+01  0.218767D+01
     47  0.778318D+01 -0.180892D+01 -0.158999D+01  0.437012D+01  0.472151D+01
     48  0.162214D+01  0.135801D+01 -0.584251D+00  0.211429D+01 -0.277563D+00
     49  0.681401D+00 -0.419397D+00  0.206503D+01  0.933647D+00  0.597738D+00
     50 -0.352445D+01  0.205874D+01  0.126849D+01 -0.228755D+01 -0.273245D+01
               36            37            38            39            40 
     36  0.144947D+02
     37  0.467729D+01  0.138043D+02
     38 -0.106612D-01  0.137370D-01  0.140601D+02
     39 -0.282302D-01 -0.144643D+00 -0.417620D-01  0.138023D+02
     40 -0.470724D-01 -0.833760D-01 -0.488962D-01  0.237932D-01  0.140319D+02
     41  0.140871D+01  0.125371D+01 -0.118251D+01  0.303538D+00 -0.573278D-01
     42  0.448086D+01  0.426668D+01 -0.500474D+00  0.872957D-01 -0.525418D-01
     43 -0.163730D+01 -0.137612D+01  0.185875D+01 -0.477605D+00  0.107018D+00
     44 -0.329187D+00  0.180837D+00  0.240793D+01  0.807088D-01  0.109462D+00
     45 -0.646556D-01  0.886195D-01  0.918838D-01  0.267926D+01 -0.459629D+00
     46  0.181402D+01  0.493327D+01  0.731123D+00 -0.266152D+01 -0.163888D+01
     47  0.482146D+01  0.542390D+01  0.234153D+00 -0.682611D+00 -0.582665D+00
     48  0.914061D+00  0.348156D+01 -0.191361D+00  0.768008D+00 -0.131544D+01
     49 -0.484394D+00  0.168589D+01 -0.104501D+01 -0.106027D+01  0.232909D+01
     50 -0.200458D+01 -0.424241D+01 -0.129378D+01  0.345535D+01  0.210514D+01
               41            42            43            44            45 
     41  0.111542D+02
     42  0.662916D+01  0.856427D+01
     43 -0.177556D+01 -0.154522D+01  0.107629D+02
     44  0.658764D-01  0.573507D-01 -0.388665D-01  0.974238D+01
     45 -0.301171D-01 -0.259763D-01  0.294203D-01 -0.224161D-02  0.973823D+01
     46  0.193559D+00  0.160501D+01 -0.194222D+00 -0.448063D-02  0.877053D-01
     47  0.154694D+01  0.397184D+01 -0.122350D+01 -0.142557D-01  0.446739D+00
     48  0.173340D+00  0.101482D+01 -0.156924D+00 -0.491676D-02  0.852046D-01
     49  0.103206D-01  0.791095D-01 -0.940789D-02  0.149817D-01  0.416907D-02
     50 -0.130799D+00 -0.915116D+00  0.123034D+00  0.302831D-02 -0.415831D-01
               46            47            48            49            50 
     46  0.115712D+02
     47  0.688975D+01  0.881537D+01
     48  0.853673D+00  0.739904D+00  0.103097D+02
     49  0.189979D+00  0.164770D+00  0.478105D-01  0.101123D+02
     50 -0.177039D+01 -0.153343D+01 -0.459186D+00 -0.104238D+00  0.110782D+02
 ****** Core Hamiltonian ****** 
                1             2             3             4             5 
      1 -0.503096D+02
      2 -0.111374D+02 -0.208403D+02
      3 -0.160814D-01 -0.109737D+00 -0.188517D+02
      4 -0.200265D+01 -0.389823D+01 -0.606191D-02 -0.217247D+02
      5 -0.327053D-01 -0.223023D+00  0.406548D-01 -0.192715D-02 -0.188324D+02
      6 -0.811942D+01 -0.147485D+02 -0.106648D+00 -0.238381D+01 -0.214726D+00
      7 -0.221599D-02 -0.727164D-01 -0.769326D+01 -0.607524D-02  0.396766D-01
      8 -0.224226D+00 -0.109568D+01 -0.607524D-02 -0.823882D+01 -0.189127D-02
      9 -0.450673D-02 -0.146145D+00  0.396766D-01 -0.189127D-02 -0.767225D+01
     10 -0.154610D+01 -0.914634D+01 -0.195605D+00 -0.651144D+00 -0.100370D+00
     11 -0.171267D+01 -0.982386D+01 -0.428718D-01 -0.255488D+01 -0.824464D-01
[...]
  26 4   O  1S          0.21306   0.00000  -0.01123   0.00000  -0.00042
  27        2S         -0.95801   0.00000   0.02974   0.00000  -0.04545
  28        2PX         0.00000  -0.16064   0.00000   0.00000   0.00000
  29        2PY        -0.40934   0.00000  -0.14832   0.00000   0.04975
  30        2PZ         0.00000   0.00000   0.00000  -0.27648   0.00000
  31        3S        -74.39893   0.00000  -1.97683   0.00000   1.14352
  32        3PX         0.00000   0.24369   0.00000   0.00000   0.00000
  33        3PY        -2.42344   0.00000  -0.02118   0.00000   0.09678
  34        3PZ         0.00000   0.00000   0.00000   0.36871   0.00000
  35        4XX        -1.02259   0.00000  -0.00634   0.00000   0.08102
  36        4YY        -0.21518   0.00000  -0.00723   0.00000   0.01464
  37        4ZZ        -0.89463   0.00000  -0.00324   0.00000   0.02446
  38        4XY         0.00000   0.01327   0.00000   0.00000   0.00000
  39        4XZ         0.00000   0.00000   0.00000   0.00000   0.00000
  40        4YZ         0.00000   0.00000   0.00000   0.02394   0.00000
  41 5   H  1S         -0.69944  -0.01914  -0.00925  -0.00152   0.02839
  42        2S         -0.93245  -0.12115  -0.01415  -0.00871   0.01758
  43        3PX        -0.02286   0.00017  -0.00029  -0.00009   0.00089
  44        3PY         0.00127   0.00007  -0.00095   0.00000  -0.00008
  45        3PZ        -0.00149  -0.00041  -0.00002   0.00756   0.00021
  46 6   H  1S         -1.41948  -0.00022  -0.00400  -0.03692   0.01287
  47        2S         -1.18901   0.05145  -0.00367  -0.22126   0.01739
  48        3PX         0.01168   0.00308   0.00002   0.00717   0.00032
  49        3PY         0.00052  -0.00001  -0.00167   0.00006  -0.00001
  50        3PZ        -0.04564   0.00150  -0.00013  -0.00120   0.00056
                          11        12        13        14        15
  11        4YY         0.08425
  12        4ZZ         0.01922   0.08794
  13        4XY         0.00000   0.00000   0.03807
  14        4XZ         0.00000   0.00000   0.00000   0.00516
  15        4YZ         0.00000   0.00000   0.00000   0.00000   0.04168
  16 2   H  1S          0.00474   0.00687   0.00010  -0.00010   0.00000
  17        2S          0.01426   0.00476  -0.00043  -0.00011  -0.00002
  18        3PX        -0.00009   0.00022   0.00015  -0.00002   0.00000
  19        3PY         0.00001  -0.00001  -0.00009   0.00000   0.00000
  20        3PZ         0.00001  -0.00003  -0.00001   0.00050   0.00001
  21 3   H  1S          0.00647   0.02234   0.00002  -0.00217   0.00010
  22        2S          0.01784   0.00817   0.00002   0.00115  -0.00012
  23        3PX        -0.00013  -0.00153   0.00000   0.00029   0.00004
  24        3PY         0.00001  -0.00003   0.00001   0.00000  -0.00014
  25        3PZ        -0.00017  -0.00035   0.00001  -0.00013   0.00006
  26 4   O  1S          0.01742  -0.00018   0.00000   0.00000   0.00000
  27        2S         -0.10068  -0.04033   0.00000   0.00000   0.00000
  28        2PX         0.00000   0.00000  -0.07326   0.00000   0.00000
  29        2PY        -0.02318   0.04104   0.00000   0.00000   0.00000
  30        2PZ         0.00000   0.00000   0.00000   0.00000  -0.07849
  31        3S          0.78370   0.93994   0.00000   0.00000   0.00000
  32        3PX         0.00000   0.00000   0.00851   0.00000   0.00000
  33        3PY         0.00859   0.08453   0.00000   0.00000   0.00000
  34        3PZ         0.00000   0.00000   0.00000   0.00000   0.00892
  35        4XX         0.01654   0.02278   0.00000   0.00000   0.00000
  36        4YY         0.05085   0.01392   0.00000   0.00000   0.00000
  37        4ZZ         0.01584   0.06313   0.00000   0.00000   0.00000
  38        4XY         0.00000   0.00000  -0.02756   0.00000   0.00000
  39        4XZ         0.00000   0.00000   0.00000   0.00298   0.00000
  40        4YZ         0.00000   0.00000   0.00000   0.00000  -0.02987
  41 5   H  1S          0.00474   0.00687   0.00010  -0.00010   0.00000
  42        2S          0.01426   0.00476  -0.00043  -0.00011  -0.00002
  43        3PX        -0.00009   0.00022   0.00015  -0.00002   0.00000
  44        3PY         0.00001  -0.00001  -0.00009   0.00000   0.00000
  45        3PZ         0.00001  -0.00003  -0.00001   0.00050   0.00001
  46 6   H  1S          0.00647   0.02234   0.00002  -0.00217   0.00010
  47        2S          0.01784   0.00817   0.00002   0.00115  -0.00012
  48        3PX        -0.00013  -0.00153   0.00000   0.00029   0.00004
  49        3PY         0.00001  -0.00003   0.00001   0.00000  -0.00014
  50        3PZ        -0.00017  -0.00035   0.00001  -0.00013   0.00006
                          16        17        18        19        20
  16 2   H  1S          0.54854
  17        2S          0.00590   0.17544
  18        3PX         0.00000   0.00000   0.00224
  19        3PY         0.00000   0.00000   0.00000   0.00015
  20        3PZ         0.00000   0.00000   0.00000   0.00000   0.00162
  21 3   H  1S          0.00042   0.00022   0.00000   0.00000   0.00001
  22        2S          0.00123   0.07255   0.00005   0.00000  -0.00058
  23        3PX        -0.00002  -0.00094   0.00000   0.00000   0.00001
  24        3PY         0.00000   0.00000   0.00000   0.00000   0.00000
  25        3PZ        -0.00002   0.00021   0.00000   0.00000   0.00000
  26 4   O  1S         -0.00029   0.00223  -0.00007  -0.00001   0.00000
  27        2S         -0.00762  -0.02776   0.00110   0.00018  -0.00001
  28        2PX        -0.00964   0.01966  -0.00392   0.00010   0.00011
  29        2PY         0.00541   0.00046   0.00050   0.00008   0.00004
  30        2PZ         0.00013   0.00076   0.00002   0.00000   0.00008
  31        3S          0.55649   0.77858   0.01964   0.00250   0.00109
  32        3PX         0.00148  -0.06923   0.00053  -0.00005  -0.00021
  33        3PY         0.01808  -0.00470   0.00085  -0.00192   0.00005
  34        3PZ         0.00000  -0.00279  -0.00001   0.00000   0.00166
  35        4XX         0.02429   0.01094   0.00083   0.00009   0.00016
  36        4YY         0.00341   0.00834  -0.00013   0.00002   0.00000
  37        4ZZ         0.00474   0.00513   0.00010   0.00001  -0.00003
  38        4XY         0.00018  -0.00098   0.00031   0.00010  -0.00002
  39        4XZ        -0.00009  -0.00009  -0.00001   0.00000   0.00048
  40        4YZ         0.00000  -0.00005   0.00000   0.00000   0.00004
  41 5   H  1S          0.54854   0.00590   0.00000   0.00000   0.00000
  42        2S          0.00590   0.17544   0.00000   0.00000   0.00000
  43        3PX         0.00000   0.00000   0.00224   0.00000   0.00000
  44        3PY         0.00000   0.00000   0.00000   0.00015   0.00000
  45        3PZ         0.00000   0.00000   0.00000   0.00000   0.00162
  46 6   H  1S          0.00042   0.00022   0.00000   0.00000   0.00001
  47        2S          0.00123   0.07255   0.00005   0.00000  -0.00058
  48        3PX        -0.00002  -0.00094   0.00000   0.00000   0.00001
  49        3PY         0.00000   0.00000   0.00000   0.00000   0.00000
  50        3PZ        -0.00002   0.00021   0.00000   0.00000   0.00000
                          21        22        23        24        25
  21 3   H  1S          0.58460
  22        2S         -0.00152   0.23608
  23        3PX         0.00000   0.00000   0.00268
  24        3PY         0.00000   0.00000   0.00000   0.00032
  25        3PZ         0.00000   0.00000   0.00000   0.00000   0.00445
  26 4   O  1S         -0.00040   0.00282   0.00003  -0.00004  -0.00013
  27        2S         -0.00979  -0.03370   0.00035   0.00038   0.00078
  28        2PX        -0.00454  -0.00347   0.00017  -0.00002  -0.00162
  29        2PY         0.00881   0.00039  -0.00057  -0.00025   0.00112
  30        2PZ        -0.01774   0.02579  -0.00338   0.00033  -0.00736
  31        3S          1.21447   0.99797  -0.00738   0.00633   0.03994
  32        3PX         0.00450   0.02825   0.00135   0.00006   0.00100
  33        3PY         0.05166  -0.00757  -0.00047  -0.00409   0.00213
  34        3PZ         0.02122  -0.07210   0.00216  -0.00008   0.00044
  35        4XX         0.00786   0.00994   0.00022   0.00011   0.00043
  36        4YY         0.00426   0.00979  -0.00004   0.00003  -0.00022
  37        4ZZ         0.02205   0.00589  -0.00091   0.00026   0.00069
  38        4XY         0.00023   0.00040  -0.00001  -0.00003   0.00016
  39        4XZ         0.00243   0.00087   0.00015   0.00007   0.00039
  40        4YZ         0.00108  -0.00182   0.00051   0.00018   0.00066
  41 5   H  1S          0.00042   0.00123  -0.00002   0.00000  -0.00002
  42        2S          0.00022   0.07255  -0.00094   0.00000   0.00021
  43        3PX         0.00000   0.00005   0.00000   0.00000   0.00000
  44        3PY         0.00000   0.00000   0.00000   0.00000   0.00000
  45        3PZ         0.00001  -0.00058   0.00001   0.00000   0.00000
  46 6   H  1S          0.58460  -0.00152   0.00000   0.00000   0.00000
  47        2S         -0.00152   0.23608   0.00000   0.00000   0.00000
  48        3PX         0.00000   0.00000   0.00268   0.00000   0.00000
  49        3PY         0.00000   0.00000   0.00000   0.00032   0.00000
  50        3PZ         0.00000   0.00000   0.00000   0.00000   0.00445
                          26        27        28        29        30
  26 4   O  1S          2.27939
  27        2S         -0.13300   0.99221
  28        2PX         0.00000   0.00000   0.80954
  29        2PY         0.00000   0.00000   0.00000   1.42586
  30        2PZ         0.00000   0.00000   0.00000   0.00000   0.88239
  31        3S         -0.22498   1.47453   0.00000   0.00000   0.00000
  32        3PX         0.00000   0.00000  -0.11598   0.00000   0.00000
  33        3PY         0.00000   0.00000   0.00000   0.56893   0.00000
  34        3PZ         0.00000   0.00000   0.00000   0.00000  -0.11887
  35        4XX         0.00047  -0.05703   0.00000   0.00000   0.00000
  36        4YY         0.00529  -0.12516   0.00000   0.00000   0.00000
  37        4ZZ         0.00076  -0.05958   0.00000   0.00000   0.00000
  38        4XY         0.00000   0.00000   0.00000   0.00000   0.00000
  39        4XZ         0.00000   0.00000   0.00000   0.00000   0.00000
  40        4YZ         0.00000   0.00000   0.00000   0.00000   0.00000
  41 5   H  1S         -0.00029  -0.00762  -0.00964   0.00541   0.00013
  42        2S          0.00223  -0.02776   0.01966   0.00046   0.00076
  43        3PX        -0.00007   0.00110  -0.00392   0.00050   0.00002
  44        3PY        -0.00001   0.00018   0.00010   0.00008   0.00000
  45        3PZ         0.00000  -0.00001   0.00011   0.00004   0.00008
  46 6   H  1S         -0.00040  -0.00979  -0.00454   0.00881  -0.01774
  47        2S          0.00282  -0.03370  -0.00347   0.00039   0.02579
  48        3PX         0.00003   0.00035   0.00017  -0.00057  -0.00338
  49        3PY        -0.00004   0.00038  -0.00002  -0.00025   0.00033
  50        3PZ        -0.00013   0.00078  -0.00162   0.00112  -0.00736
                          31        32        33        34        35
  31        3S         67.66136
  32        3PX         0.00000   0.14946
  33        3PY         0.00000   0.00000   2.05493
  34        3PZ         0.00000   0.00000   0.00000   0.13408
  35        4XX         0.72401   0.00000   0.00000   0.00000   0.07345
  36        4YY         0.04946   0.00000   0.00000   0.00000   0.01211
  37        4ZZ         0.62132   0.00000   0.00000   0.00000   0.02233
  38        4XY         0.00000   0.00000   0.00000   0.00000   0.00000
  39        4XZ         0.00000   0.00000   0.00000   0.00000   0.00000
  40        4YZ         0.00000   0.00000   0.00000   0.00000   0.00000
  41 5   H  1S          0.55649   0.00148   0.01808   0.00000   0.02429
  42        2S          0.77858  -0.06923  -0.00470  -0.00279   0.01094
  43        3PX         0.01964   0.00053   0.00085  -0.00001   0.00083
  44        3PY         0.00250  -0.00005  -0.00192   0.00000   0.00009
  45        3PZ         0.00109  -0.00021   0.00005   0.00166   0.00016
  46 6   H  1S          1.21447   0.00450   0.05166   0.02122   0.00786
  47        2S          0.99797   0.02825  -0.00757  -0.07210   0.00994
  48        3PX        -0.00738   0.00135  -0.00047   0.00216   0.00022
  49        3PY         0.00633   0.00006  -0.00409  -0.00008   0.00011
  50        3PZ         0.03994   0.00100   0.00213   0.00044   0.00043
                          36        37        38        39        40
  36        4YY         0.06614
  37        4ZZ         0.01236   0.06263
  38        4XY         0.00000   0.00000   0.03667
  39        4XZ         0.00000   0.00000   0.00000   0.00373
  40        4YZ         0.00000   0.00000   0.00000   0.00000   0.04014
  41 5   H  1S          0.00341   0.00474   0.00018  -0.00009   0.00000
  42        2S          0.00834   0.00513  -0.00098  -0.00009  -0.00005
  43        3PX        -0.00013   0.00010   0.00031  -0.00001   0.00000
  44        3PY         0.00002   0.00001   0.00010   0.00000   0.00000
  45        3PZ         0.00000  -0.00003  -0.00002   0.00048   0.00004
  46 6   H  1S          0.00426   0.02205   0.00023   0.00243   0.00108
  47        2S          0.00979   0.00589   0.00040   0.00087  -0.00182
  48        3PX        -0.00004  -0.00091  -0.00001   0.00015   0.00051
  49        3PY         0.00003   0.00026  -0.00003   0.00007   0.00018
  50        3PZ        -0.00022   0.00069   0.00016   0.00039   0.00066
                          41        42        43        44        45
  41 5   H  1S          0.54854
  42        2S          0.00590   0.17544
  43        3PX         0.00000   0.00000   0.00224
  44        3PY         0.00000   0.00000   0.00000   0.00015
  45        3PZ         0.00000   0.00000   0.00000   0.00000   0.00162
  46 6   H  1S          0.00042   0.00022   0.00000   0.00000   0.00001
  47        2S          0.00123   0.07255   0.00005   0.00000  -0.00058
  48        3PX        -0.00002  -0.00094   0.00000   0.00000   0.00001
  49        3PY         0.00000   0.00000   0.00000   0.00000   0.00000
  50        3PZ        -0.00002   0.00021   0.00000   0.00000   0.00000
                          46        47        48        49        50
  46 6   H  1S          0.58460
  47        2S         -0.00152   0.23608
  48        3PX         0.00000   0.00000   0.00268
  49        3PY         0.00000   0.00000   0.00000   0.00032
  50        3PZ         0.00000   0.00000   0.00000   0.00000   0.00445
     Gross orbital populations:
                           1
   1 1   O  1S          1.95934
   2        2S          1.19022
   3        2PX         1.12190
   4        2PY         1.08890
   5        2PZ         1.10019
   6        3S         -0.65572
   7        3PX         0.21727
   8        3PY        -0.33064
   9        3PZ         0.77731
  10        4XX        -0.00853
  11        4YY        -0.18235
  12        4ZZ        -0.06940
  13        4XY        -0.05462
  14        4XZ         0.00697
  15        4YZ        -0.05789
  16 2   H  1S          1.00679
  17        2S          0.18097
  18        3PX         0.00020
  19        3PY         0.00232
  20        3PZ         0.01243
  21 3   H  1S          1.02724
  22        2S          0.24658
  23        3PX         0.01449
  24        3PY         0.00419
  25        3PZ        -0.00545
  26 4   O  1S          1.95937
  27        2S          1.18919
  28        2PX         1.11336
  29        2PY         1.09863
  30        2PZ         1.08705
  31        3S          2.67269
  32        3PX         0.11909
  33        3PY        -0.23344
  34        3PZ         0.20187
  35        4XX        -0.01763
  36        4YY        -0.15228
  37        4ZZ        -0.05590
  38        4XY        -0.04644
  39        4XZ         0.01510
  40        4YZ        -0.03309
  41 5   H  1S          1.00679
  42        2S          0.18097
  43        3PX         0.00020
  44        3PY         0.00232
  45        3PZ         0.01243
  46 6   H  1S          1.02724
  47        2S          0.24658
  48        3PX         0.01449
  49        3PY         0.00419
  50        3PZ        -0.00545
          Condensed to atoms (all electrons):
               1          2          3          4          5          6
     1  O   95.615446  -1.764504  -2.812758 -80.357972  -1.764504  -2.812758
     2  H   -1.764504   0.739783   0.073118   1.341397   0.739783   0.073118
     3  H   -2.812758   0.073118   0.825090   2.303394   0.073118   0.825090
     4  O  -80.357972   1.341397   2.303394  81.985949   1.341397   2.303394
     5  H   -1.764504   0.739783   0.073118   1.341397   0.739783   0.073118
     6  H   -2.812758   0.073118   0.825090   2.303394   0.073118   0.825090
 Mulliken charges:
               1
     1  O    1.897049
     2  H   -0.202694
     3  H   -0.287051
     4  O   -0.917558
     5  H   -0.202694
     6  H   -0.287051
 Sum of Mulliken charges =   0.00000
 Mulliken charges with hydrogens summed into heavy atoms:
               1
     1  O    0.917558
     4  O   -0.917558
 N-N=                Inf E-N=-6.058364649306D+02  KE= 1.808139164474D+02
 Orbital energies and kinetic energies (alpha):
                                 1                 2
   1         O               -27.771578         24.007265
   2         O               -21.179270         37.561002
   3         O                -3.103584          4.561808
   4         O                -3.057092          4.502049
   5         O                -2.587440          5.054703
   6         O                -1.094210          3.796297
   7         O                -1.055382          2.266538
   8         O                -1.016434          2.548660
   9         O                -0.069490          4.310402
  10         O                 0.076315          1.798234
  11         V                 0.096983          1.981102
  12         V                 0.143741          1.315282
  13         V                 0.144549          1.885648
  14         V                 0.165831          2.280904
  15         V                 0.241535          1.395270
  16         V                 0.324431          1.774174
  17         V                 0.507989          3.418447
  18         V                 0.628504          2.583492
  19         V                 0.846287          2.735391
  20         V                 0.897405          4.198464
  21         V                 0.914357          2.961973
  22         V                 0.958740          3.546284
  23         V                 1.084879          3.190499
  24         V                 1.471307          2.951097
  25         V                 1.560221          3.032891
  26         V                 1.815135          3.386496
  27         V                 1.925658          3.564488
  28         V                 2.028359          4.599951
  29         V                 2.141360          3.951724
  30         V                 2.246004          4.518716
  31         V                 2.293386          5.064214
  32         V                 2.516739          4.581895
  33         V                 2.649399          4.356162
  34         V                 2.748240          4.449837
  35         V                 2.827766          5.020598
  36         V                 2.849259          5.268633
  37         V                 3.748792         18.848961
  38         V                 4.045252         13.224701
  39         V                 4.065843         13.197674
  40         V                19.701675         59.502051
 Total kinetic energy from orbitals= 1.808139164474D+02

 This type of calculation cannot be archived.


 ONLY THE DAY DAWNS TO WHICH YOU ARE AWAKE.

                                 -- THOREAU
 Job cpu time:       0 days  0 hours  0 minutes  3.0 seconds.
 File lengths (MBytes):  RWF=      5 Int=      0 D2E=      0 Chk=      1 Scr=      1
 Normal termination of Gaussian 09 at Wed Mar 25 08:47:14 2015.
