 Entering Gaussian System, Link 0=g09
 Input=high-model.gjf
 Output=high-model.log
 Initial command:
 /opt/g09_D01_em64t/g09/l1.exe "/tmp/Gau-32322.inp" -scrdir="/tmp/"
 Entering Link 1 = /opt/g09_D01_em64t/g09/l1.exe PID=     32323.
  
 Copyright (c) 1988,1990,1992,1993,1995,1998,2003,2009,2013,
            Gaussian, Inc.  All Rights Reserved.
  
 This is part of the Gaussian(R) 09 program.  It is based on
 the Gaussian(R) 03 system (copyright 2003, Gaussian, Inc.),
 the Gaussian(R) 98 system (copyright 1998, Gaussian, Inc.),
 the Gaussian(R) 94 system (copyright 1995, Gaussian, Inc.),
 the Gaussian 92(TM) system (copyright 1992, Gaussian, Inc.),
 the Gaussian 90(TM) system (copyright 1990, Gaussian, Inc.),
 the Gaussian 88(TM) system (copyright 1988, Gaussian, Inc.),
 the Gaussian 86(TM) system (copyright 1986, Carnegie Mellon
 University), and the Gaussian 82(TM) system (copyright 1983,
 Carnegie Mellon University). Gaussian is a federally registered
 trademark of Gaussian, Inc.
  
 This software contains proprietary and confidential information,
 including trade secrets, belonging to Gaussian, Inc.
  
 This software is provided under written license and may be
 used, copied, transmitted, or stored only in accord with that
 written license.
  
 The following legend is applicable only to US Government
 contracts under FAR:
  
                    RESTRICTED RIGHTS LEGEND
  
 Use, reproduction and disclosure by the US Government is
 subject to restrictions as set forth in subparagraphs (a)
 and (c) of the Commercial Computer Software - Restricted
 Rights clause in FAR 52.227-19.
  
 Gaussian, Inc.
 340 Quinnipiac St., Bldg. 40, Wallingford CT 06492
  
  
 ---------------------------------------------------------------
 Warning -- This program may not be used in any manner that
 competes with the business of Gaussian, Inc. or will provide
 assistance to any competitor of Gaussian, Inc.  The licensee
 of this program is prohibited from giving any competitor of
 Gaussian, Inc. access to this program.  By using this program,
 the user acknowledges that Gaussian, Inc. is engaged in the
 business of creating and licensing software in the field of
 computational chemistry and represents and warrants to the
 licensee that it is not a competitor of Gaussian, Inc. and that
 it will not use this program in any manner prohibited above.
 ---------------------------------------------------------------
  

 Cite this work as:
 Gaussian 09, Revision D.01,
 M. J. Frisch, G. W. Trucks, H. B. Schlegel, G. E. Scuseria, 
 M. A. Robb, J. R. Cheeseman, G. Scalmani, V. Barone, B. Mennucci, 
 G. A. Petersson, H. Nakatsuji, M. Caricato, X. Li, H. P. Hratchian, 
 A. F. Izmaylov, J. Bloino, G. Zheng, J. L. Sonnenberg, M. Hada, 
 M. Ehara, K. Toyota, R. Fukuda, J. Hasegawa, M. Ishida, T. Nakajima, 
 Y. Honda, O. Kitao, H. Nakai, T. Vreven, J. A. Montgomery, Jr., 
 J. E. Peralta, F. Ogliaro, M. Bearpark, J. J. Heyd, E. Brothers, 
 K. N. Kudin, V. N. Staroverov, T. Keith, R. Kobayashi, J. Normand, 
 K. Raghavachari, A. Rendell, J. C. Burant, S. S. Iyengar, J. Tomasi, 
 M. Cossi, N. Rega, J. M. Millam, M. Klene, J. E. Knox, J. B. Cross, 
 V. Bakken, C. Adamo, J. Jaramillo, R. Gomperts, R. E. Stratmann, 
 O. Yazyev, A. J. Austin, R. Cammi, C. Pomelli, J. W. Ochterski, 
 R. L. Martin, K. Morokuma, V. G. Zakrzewski, G. A. Voth, 
 P. Salvador, J. J. Dannenberg, S. Dapprich, A. D. Daniels, 
 O. Farkas, J. B. Foresman, J. V. Ortiz, J. Cioslowski, 
 and D. J. Fox, Gaussian, Inc., Wallingford CT, 2013.
 
 ******************************************
 Gaussian 09:  EM64L-G09RevD.01 24-Apr-2013
                25-Mar-2015 
 ******************************************
 %chk=onlyinputfiles.chk
 %mem=1GB
 %nproc=2
 Will use up to    2 processors via shared memory.
 %nproclinda=1
 Will use up to    1 processors via Linda.
 ------------------------------------------------------
 #P IOp(2/15=1,5/32=2,5/38=1) B3LYP/6-31G(D,P) pop=full
 ------------------------------------------------------
 1/38=1/1;
 2/12=2,15=1,17=6,18=5,40=1/2;
 3/5=1,6=6,7=101,11=2,16=1,25=1,30=1,74=-5/1,2,3;
 4//1;
 5/5=2,32=2,38=1/2;
 6/7=3,28=1/1;
 99/5=1,9=1/99;
 Leave Link    1 at Wed Mar 25 09:50:34 2015, MaxMem=   134217728 cpu:         0.1
 (Enter /opt/g09_D01_em64t/g09/l101.exe)
 ---------------------------------------------
 ch2nh2 Point 2 -- high level on model system.
 ---------------------------------------------
 Symbolic Z-matrix:
 Charge =  0 Multiplicity = 1
 O-O_3--0.834000      -0.19511  -1.16114   0. 
 H-H_-0.417000         0.3129   -1.16114   0. 
 H-H_-0.417000        -0.36469  -0.68227   0. 
 O-#6--0.834000       -1.24204   0.18083   0. 
 H-#6-0.417000        -0.73403   0.18083   0. 
 H-#6-0.417000        -1.41162   0.65971   0. 
 
 NAtoms=      6 NQM=        6 NQMF=       0 NMMI=      0 NMMIF=      0
                NMic=       0 NMicF=      0.
                    Isotopes and Nuclear Properties:
 (Nuclear quadrupole moments (NQMom) in fm**2, nuclear magnetic moments (NMagM)
  in nuclear magnetons)

  Atom         1           2           3           4           5           6
 IAtWgt=          16           1           1          16           1           1
 AtmWgt=  15.9949146   1.0078250   1.0078250  15.9949146   1.0078250   1.0078250
 NucSpn=           0           1           1           0           1           1
 AtZEff=   0.0000000   0.0000000   0.0000000   0.0000000   0.0000000   0.0000000
 NQMom=    0.0000000   0.0000000   0.0000000   0.0000000   0.0000000   0.0000000
 NMagM=    0.0000000   2.7928460   2.7928460   0.0000000   2.7928460   2.7928460
 AtZNuc=   8.0000000   1.0000000   1.0000000   8.0000000   1.0000000   1.0000000
 MM Charge=              0.0000 electrons
 MM Dipole moment (Debye):
    X=              1.3557    Y=              1.9183    Z=              0.0000  Tot=              2.3490
 MM Quadrupole moment (Debye-Ang):
   XX=             -0.7994   YY=             -0.9619   ZZ=              0.0000
   XY=             -2.3683   XZ=              0.0000   YZ=              0.0000
 MM Traceless Quadrupole moment (Debye-Ang):
   XX=             -0.2123   YY=             -0.3748   ZZ=              0.5871
   XY=             -2.3683   XZ=              0.0000   YZ=              0.0000
 MM Octapole moment (Debye-Ang**2):
  XXX=              1.2433  YYY=              3.0627  ZZZ=              0.0000  XYY=              0.4429
  XXY=              1.4783  XXZ=              0.0000  XZZ=              0.0000  YZZ=              0.0000
  YYZ=              0.0000  XYZ=              0.0000
 MM Hexadecapole moment (Debye-Ang**3):
 XXXX=             -0.9499 YYYY=             -2.8297 ZZZZ=              0.0000 XXXY=             -2.5116
 XXXZ=              0.0000 YYYX=             -2.7638 YYYZ=              0.0000 ZZZX=              0.0000
 ZZZY=              0.0000 XXYY=              1.7530 XXZZ=              0.0000 YYZZ=              0.0000
 XXYZ=              0.0000 YYXZ=              0.0000 ZZXY=              0.0000
 Leave Link  101 at Wed Mar 25 09:50:34 2015, MaxMem=   134217728 cpu:         0.1
 (Enter /opt/g09_D01_em64t/g09/l202.exe)
                          Input orientation:                          
 ---------------------------------------------------------------------
 Center     Atomic      Atomic             Coordinates (Angstroms)
 Number     Number       Type             X           Y           Z
 ---------------------------------------------------------------------
      1          8    10081003       -0.195110   -1.161144    0.000000
      2          1    10011000        0.312900   -1.161144    0.000000
      3          1    10011000       -0.364688   -0.682273    0.000000
      4          8           6       -1.242044    0.180834    0.000000
      5          1           6       -0.734033    0.180834    0.000000
      6          1           6       -1.411621    0.659705    0.000000
 ---------------------------------------------------------------------
                    Distance matrix (angstroms):
                    1          2          3          4          5
     1  O    0.000000
     2  H    0.508010   0.000000
     3  H    0.508010   0.829724   0.000000
     4  O    1.702050   2.053961   1.230734   0.000000
     5  H    1.446148   1.702050   0.938813   0.508010   0.000000
     6  H    2.189838   2.507881   1.702050   0.508010   0.829724
                    6
     6  H    0.000000
 Symmetry turned off by external request.
 Stoichiometry    H4O2
 Framework group  CS[SG(H4O2)]
 Deg. of freedom     9
 Full point group                 CS      NOp   2
 Rotational constants (GHZ):   1488.3904186     18.8925889     18.6557853
 Leave Link  202 at Wed Mar 25 09:50:34 2015, MaxMem=   134217728 cpu:         0.0
 (Enter /opt/g09_D01_em64t/g09/l301.exe)
 Standard basis: 6-31G(d,p) (6D, 7F)
 Ernie: Thresh=  0.10000D-02 Tol=  0.10000D-05 Strict=F.
    25 basis functions,    42 primitive gaussians,    25 cartesian basis functions
     5 alpha electrons        5 beta electrons
       nuclear repulsion energy        16.6521769709 Hartrees.
 Nuclear repulsion from inactive atom pairs=       -0.6136354905 Hartrees.
 IExCor=  402 DFT=T Ex+Corr=B3LYP ExCW=0 ScaHFX=  0.200000
 ScaDFX=  0.800000  0.720000  1.000000  0.810000 ScalE2=  1.000000  1.000000
 IRadAn=      0 IRanWt=     -1 IRanGd=            0 ICorTp=0 IEmpDi=  4
 NAtoms=    6 NActive=    3 NUniq=    3 SFac= 1.00D+00 NAtFMM=   60 NAOKFM=F Big=F
 Integral buffers will be    131072 words long.
 Raffenetti 2 integral format.
 Two-electron integral symmetry is turned off.
 Leave Link  301 at Wed Mar 25 09:50:34 2015, MaxMem=   134217728 cpu:         0.1
 (Enter /opt/g09_D01_em64t/g09/l302.exe)
 NPDir=0 NMtPBC=     1 NCelOv=     1 NCel=       1 NClECP=     1 NCelD=      1
         NCelK=      1 NCelE2=     1 NClLst=     1 CellRange=     0.0.
 One-electron integrals computed using PRISM.
 NBasis=    25 RedAO= T EigKep=  9.48D-03  NBF=    25
 NBsUse=    25 1.00D-06 EigRej= -1.00D+00 NBFU=    25
 Precomputing XC quadrature grid using
 IXCGrd= 4 IRadAn=           0 IRanWt=          -1 IRanGd=           0 AccXCQ= 0.00D+00.
 Generated NRdTot=       0 NPtTot=           0 NUsed=           0 NTot=          32
 NSgBfM=    25    25    25    25    25 MxSgAt=     3 MxSgA2=     3.
 Leave Link  302 at Wed Mar 25 09:50:34 2015, MaxMem=   134217728 cpu:         0.3
 (Enter /opt/g09_D01_em64t/g09/l303.exe)
 DipDrv:  MaxL=1.
 Leave Link  303 at Wed Mar 25 09:50:35 2015, MaxMem=   134217728 cpu:         0.1
 (Enter /opt/g09_D01_em64t/g09/l401.exe)
 ExpMin= 1.61D-01 ExpMax= 5.48D+03 ExpMxC= 8.25D+02 IAcc=1 IRadAn=         1 AccDes= 0.00D+00
 Harris functional with IExCor=  402 and IRadAn=       1 diagonalized for initial guess.
 HarFok:  IExCor=  402 AccDes= 0.00D+00 IRadAn=         1 IDoV= 1 UseB2=F ITyADJ=14
 ICtDFT=  3500011 ScaDFX=  1.000000  1.000000  1.000000  1.000000
 FoFCou: FMM=F IPFlag=           0 FMFlag=      100000 FMFlg1=           0
         NFxFlg=           0 DoJE=T BraDBF=F KetDBF=T FulRan=T
         wScrn=  0.000000 ICntrl=     500 IOpCl=  0 I1Cent=   200000004 NGrid=           0
         NMat0=    1 NMatS0=      1 NMatT0=    0 NMatD0=    1 NMtDS0=    0 NMtDT0=    0
 Symmetry not used in FoFCou.
 Harris En= -75.8498775834370    
 JPrj=0 DoOrth=F DoCkMO=F.
 Leave Link  401 at Wed Mar 25 09:50:35 2015, MaxMem=   134217728 cpu:         0.3
 (Enter /opt/g09_D01_em64t/g09/l502.exe)
 Closed shell SCF:
 Using DIIS extrapolation, IDIIS=  1040.
 Two-electron integral symmetry not used.
 Keep R1 ints in memory in canonical form, NReq=933384.
 IVT=       20737 IEndB=       20737 NGot=   134217728 MDV=   134144017
 LenX=   134144017 LenY=   134142951
 Requested convergence on RMS density matrix=1.00D-08 within 128 cycles.
 Requested convergence on MAX density matrix=1.00D-06.
 Requested convergence on             energy=1.00D-06.
 No special actions if energy rises.
 FoFCou: FMM=F IPFlag=           0 FMFlag=           0 FMFlg1=           0
         NFxFlg=           0 DoJE=F BraDBF=F KetDBF=F FulRan=T
         wScrn=  0.000000 ICntrl=     600 IOpCl=  0 I1Cent=           0 NGrid=           0
         NMat0=    1 NMatS0=    325 NMatT0=    0 NMatD0=    1 NMtDS0=    0 NMtDT0=    0
 Symmetry not used in FoFCou.

 Cycle   1  Pass 1  IDiag  1:
 E= -75.2575174425352    
 DIIS: error= 1.46D-01 at cycle   1 NSaved=   1.
 NSaved= 1 IEnMin= 1 EnMin= -75.2575174425352     IErMin= 1 ErrMin= 1.46D-01
 ErrMax= 1.46D-01  0.00D+00 EMaxC= 1.00D-01 BMatC= 4.66D-01 BMatP= 4.66D-01
 IDIUse=3 WtCom= 0.00D+00 WtEn= 1.00D+00
 Coeff-Com:  0.100D+01
 Coeff-En:   0.100D+01
 Coeff:      0.100D+01
 Gap=     0.175 Goal=   None    Shift=    0.000
 GapD=    0.175 DampG=1.000 DampE=0.250 DampFc=0.2500 IDamp=-1.
 Damping current iteration by 2.50D-01
 RMSDP=3.06D-02 MaxDP=3.54D-01              OVMax= 2.82D-01

 Cycle   2  Pass 1  IDiag  1:
 E= -75.3611701141711     Delta-E=       -0.103652671636 Rises=F Damp=T
 DIIS: error= 7.57D-02 at cycle   2 NSaved=   2.
 NSaved= 2 IEnMin= 2 EnMin= -75.3611701141711     IErMin= 2 ErrMin= 7.57D-02
 ErrMax= 7.57D-02  0.00D+00 EMaxC= 1.00D-01 BMatC= 1.24D-01 BMatP= 4.66D-01
 IDIUse=3 WtCom= 2.43D-01 WtEn= 7.57D-01
 Coeff-Com: -0.105D+01 0.205D+01
 Coeff-En:   0.000D+00 0.100D+01
 Coeff:     -0.256D+00 0.126D+01
 Gap=     0.388 Goal=   None    Shift=    0.000
 RMSDP=1.34D-02 MaxDP=1.69D-01 DE=-1.04D-01 OVMax= 8.77D-02

 Cycle   3  Pass 1  IDiag  1:
 E= -75.5108195772891     Delta-E=       -0.149649463118 Rises=F Damp=F
 DIIS: error= 5.22D-02 at cycle   3 NSaved=   3.
 NSaved= 3 IEnMin= 3 EnMin= -75.5108195772891     IErMin= 3 ErrMin= 5.22D-02
 ErrMax= 5.22D-02  0.00D+00 EMaxC= 1.00D-01 BMatC= 5.73D-02 BMatP= 1.24D-01
 IDIUse=3 WtCom= 4.78D-01 WtEn= 5.22D-01
 Coeff-Com:  0.363D+00-0.164D+00 0.801D+00
 Coeff-En:   0.000D+00 0.000D+00 0.100D+01
 Coeff:      0.174D+00-0.783D-01 0.905D+00
 Gap=     0.521 Goal=   None    Shift=    0.000
 RMSDP=7.85D-03 MaxDP=8.93D-02 DE=-1.50D-01 OVMax= 7.10D-02

 Cycle   4  Pass 1  IDiag  1:
 E= -75.5364172758540     Delta-E=       -0.025597698565 Rises=F Damp=F
 DIIS: error= 2.52D-02 at cycle   4 NSaved=   4.
 NSaved= 4 IEnMin= 4 EnMin= -75.5364172758540     IErMin= 4 ErrMin= 2.52D-02
 ErrMax= 2.52D-02  0.00D+00 EMaxC= 1.00D-01 BMatC= 1.35D-02 BMatP= 5.73D-02
 IDIUse=3 WtCom= 7.48D-01 WtEn= 2.52D-01
 Coeff-Com: -0.257D+00 0.373D+00 0.162D+00 0.721D+00
 Coeff-En:   0.000D+00 0.000D+00 0.143D+00 0.857D+00
 Coeff:     -0.192D+00 0.279D+00 0.158D+00 0.756D+00
 Gap=     0.477 Goal=   None    Shift=    0.000
 RMSDP=2.82D-03 MaxDP=3.31D-02 DE=-2.56D-02 OVMax= 2.57D-02

 Cycle   5  Pass 1  IDiag  1:
 E= -75.5441961009400     Delta-E=       -0.007778825086 Rises=F Damp=F
 DIIS: error= 2.47D-03 at cycle   5 NSaved=   5.
 NSaved= 5 IEnMin= 5 EnMin= -75.5441961009400     IErMin= 5 ErrMin= 2.47D-03
 ErrMax= 2.47D-03  0.00D+00 EMaxC= 1.00D-01 BMatC= 1.45D-04 BMatP= 1.35D-02
 IDIUse=3 WtCom= 9.75D-01 WtEn= 2.47D-02
 Coeff-Com:  0.113D-01-0.264D-01 0.325D-01 0.164D+00 0.819D+00
 Coeff-En:   0.000D+00 0.000D+00 0.000D+00 0.000D+00 0.100D+01
 Coeff:      0.110D-01-0.258D-01 0.317D-01 0.160D+00 0.824D+00
 Gap=     0.482 Goal=   None    Shift=    0.000
 RMSDP=2.62D-04 MaxDP=2.86D-03 DE=-7.78D-03 OVMax= 2.17D-03

 Cycle   6  Pass 1  IDiag  1:
 E= -75.5442755737421     Delta-E=       -0.000079472802 Rises=F Damp=F
 DIIS: error= 3.83D-05 at cycle   6 NSaved=   6.
 NSaved= 6 IEnMin= 6 EnMin= -75.5442755737421     IErMin= 6 ErrMin= 3.83D-05
 ErrMax= 3.83D-05  0.00D+00 EMaxC= 1.00D-01 BMatC= 2.57D-08 BMatP= 1.45D-04
 IDIUse=1 WtCom= 1.00D+00 WtEn= 0.00D+00
 Coeff-Com: -0.898D-03 0.123D-02-0.135D-03 0.903D-02 0.659D-01 0.925D+00
 Coeff:     -0.898D-03 0.123D-02-0.135D-03 0.903D-02 0.659D-01 0.925D+00
 Gap=     0.482 Goal=   None    Shift=    0.000
 RMSDP=4.53D-06 MaxDP=3.98D-05 DE=-7.95D-05 OVMax= 4.10D-05

 Cycle   7  Pass 1  IDiag  1:
 E= -75.5442755922679     Delta-E=       -0.000000018526 Rises=F Damp=F
 DIIS: error= 4.52D-06 at cycle   7 NSaved=   7.
 NSaved= 7 IEnMin= 7 EnMin= -75.5442755922679     IErMin= 7 ErrMin= 4.52D-06
 ErrMax= 4.52D-06  0.00D+00 EMaxC= 1.00D-01 BMatC= 3.08D-10 BMatP= 2.57D-08
 IDIUse=1 WtCom= 1.00D+00 WtEn= 0.00D+00
 Coeff-Com:  0.171D-03-0.216D-03-0.951D-04-0.120D-02-0.494D-02-0.687D-03
 Coeff-Com:  0.101D+01
 Coeff:      0.171D-03-0.216D-03-0.951D-04-0.120D-02-0.494D-02-0.687D-03
 Coeff:      0.101D+01
 Gap=     0.482 Goal=   None    Shift=    0.000
 RMSDP=5.34D-07 MaxDP=6.39D-06 DE=-1.85D-08 OVMax= 5.59D-06

 Cycle   8  Pass 1  IDiag  1:
 E= -75.5442755924767     Delta-E=       -0.000000000209 Rises=F Damp=F
 DIIS: error= 7.64D-07 at cycle   8 NSaved=   8.
 NSaved= 8 IEnMin= 8 EnMin= -75.5442755924767     IErMin= 8 ErrMin= 7.64D-07
 ErrMax= 7.64D-07  0.00D+00 EMaxC= 1.00D-01 BMatC= 1.10D-11 BMatP= 3.08D-10
 IDIUse=1 WtCom= 1.00D+00 WtEn= 0.00D+00
 Coeff-Com:  0.147D-04-0.162D-04-0.164D-04-0.157D-03-0.774D-03-0.379D-02
 Coeff-Com:  0.178D+00 0.827D+00
 Coeff:      0.147D-04-0.162D-04-0.164D-04-0.157D-03-0.774D-03-0.379D-02
 Coeff:      0.178D+00 0.827D+00
 Gap=     0.482 Goal=   None    Shift=    0.000
 RMSDP=7.24D-08 MaxDP=8.01D-07 DE=-2.09D-10 OVMax= 6.87D-07

 Cycle   9  Pass 1  IDiag  1:
 E= -75.5442755924838     Delta-E=       -0.000000000007 Rises=F Damp=F
 DIIS: error= 5.61D-08 at cycle   9 NSaved=   9.
 NSaved= 9 IEnMin= 9 EnMin= -75.5442755924838     IErMin= 9 ErrMin= 5.61D-08
 ErrMax= 5.61D-08  0.00D+00 EMaxC= 1.00D-01 BMatC= 6.48D-14 BMatP= 1.10D-11
 IDIUse=1 WtCom= 1.00D+00 WtEn= 0.00D+00
 Coeff-Com: -0.431D-05 0.585D-05 0.241D-06 0.235D-04 0.100D-03-0.256D-03
 Coeff-Com: -0.147D-01 0.413D-01 0.974D+00
 Coeff:     -0.431D-05 0.585D-05 0.241D-06 0.235D-04 0.100D-03-0.256D-03
 Coeff:     -0.147D-01 0.413D-01 0.974D+00
 Gap=     0.482 Goal=   None    Shift=    0.000
 RMSDP=8.21D-09 MaxDP=8.57D-08 DE=-7.13D-12 OVMax= 7.42D-08

 SCF Done:  E(RB3LYP) =  -75.5442755925     A.U. after    9 cycles
            NFock=  9  Conv=0.82D-08     -V/T= 1.9433
 KE= 8.008701376063D+01 PE=-2.148173119934D+02 EE= 4.253384566945D+01
 Leave Link  502 at Wed Mar 25 09:50:36 2015, MaxMem=   134217728 cpu:         1.0
 (Enter /opt/g09_D01_em64t/g09/l601.exe)
 Copying SCF densities to generalized density rwf, IOpCl= 0 IROHF=0.

 **********************************************************************

            Population analysis using the SCF density.

 **********************************************************************

 Alpha  occ. eigenvalues --  -19.10594  -1.29576  -0.76787  -0.40529  -0.34470
 Alpha virt. eigenvalues --    0.13741   0.25188   0.77422   0.82825   0.96236
 Alpha virt. eigenvalues --    1.23339   1.44249   1.46664   1.67264   1.70572
 Alpha virt. eigenvalues --    1.73788   2.99324   3.08125   3.22094   3.26278
 Alpha virt. eigenvalues --    3.39853   3.70320   3.83408   6.39163   9.44014
     Molecular Orbital Coefficients:
                           1         2         3         4         5
                           O         O         O         O         O
     Eigenvalues --   -19.10594  -1.29576  -0.76787  -0.40529  -0.34470
   1 1   O  1S          0.99228  -0.24554  -0.00104   0.08299   0.00000
   2        2S          0.03346   0.36182  -0.00168  -0.19677   0.00000
   3        2PX         0.00410   0.13403   0.49533   0.36338   0.00000
   4        2PY         0.00574   0.19003  -0.35772   0.49516   0.00000
   5        2PZ         0.00000   0.00000   0.00000   0.00000   0.66117
   6        3S          0.02201   0.11172  -0.00451  -0.37904   0.00000
   7        3PX         0.00107  -0.00684   0.04922   0.20301   0.00000
   8        3PY         0.00151  -0.01763  -0.04284   0.29104   0.00000
   9        3PZ         0.00000   0.00000   0.00000   0.00000   0.45617
  10        4XX        -0.01022  -0.02941   0.03316  -0.01199   0.00000
  11        4YY        -0.00896  -0.00028  -0.02907   0.01981   0.00000
  12        4ZZ        -0.01108  -0.02039   0.00090  -0.02132   0.00000
  13        4XY         0.00208   0.05030   0.01016   0.05906   0.00000
  14        4XZ         0.00000   0.00000   0.00000   0.00000   0.02631
  15        4YZ         0.00000   0.00000   0.00000   0.00000   0.03235
  16 2   H  1S         -0.00381   0.31516   0.33087   0.10823   0.00000
  17        2S         -0.00367   0.03102   0.16019  -0.00667   0.00000
  18        3PX         0.00177  -0.02702  -0.03026   0.00253   0.00000
  19        3PY        -0.00233  -0.03235   0.00525  -0.00522   0.00000
  20        3PZ         0.00000   0.00000   0.00000   0.00000   0.01960
  21 3   H  1S         -0.00374   0.31889  -0.33327   0.09729   0.00000
  22        2S         -0.00367   0.03508  -0.15210   0.00692   0.00000
  23        3PX        -0.00278  -0.01933  -0.01538  -0.00486   0.00000
  24        3PY         0.00087  -0.03138   0.02120   0.00341   0.00000
  25        3PZ         0.00000   0.00000   0.00000   0.00000   0.02210
                           6         7         8         9        10
                           V         V         V         V         V
     Eigenvalues --     0.13741   0.25188   0.77422   0.82825   0.96236
   1 1   O  1S         -0.11579   0.01131  -0.02794   0.00000   0.00097
   2        2S          0.03876  -0.00181   0.12921   0.00000   0.02086
   3        2PX         0.08034   0.17978  -0.36731   0.00000   0.33835
   4        2PY         0.06645  -0.15832  -0.53415   0.00000  -0.21842
   5        2PZ         0.00000   0.00000   0.00000  -0.77249   0.00000
   6        3S          2.20361  -0.15442   0.79984   0.00000  -0.15550
   7        3PX         0.15888   0.77626   0.72397   0.00000  -2.09754
   8        3PY         0.11549  -0.53321   1.19381   0.00000   1.41178
   9        3PZ         0.00000   0.00000   0.00000   1.13543   0.00000
  10        4XX        -0.10029   0.05432   0.06793   0.00000   0.02191
  11        4YY        -0.10053  -0.03720   0.17873   0.00000  -0.01184
  12        4ZZ        -0.11540   0.00767   0.07039   0.00000   0.01540
  13        4XY         0.00105   0.02175   0.17599   0.00000   0.01297
  14        4XZ         0.00000   0.00000   0.00000   0.06184   0.00000
  15        4YZ         0.00000   0.00000   0.00000   0.08234   0.00000
  16 2   H  1S          0.05226  -0.02011  -0.26121   0.00000   0.64516
  17        2S         -1.59035  -2.70505  -0.31201   0.00000   2.39348
  18        3PX         0.00736  -0.03346  -0.05011   0.00000   0.12422
  19        3PY        -0.00563   0.00643  -0.18572   0.00000  -0.00136
  20        3PZ         0.00000   0.00000   0.00000  -0.17634   0.00000
  21 3   H  1S          0.02799  -0.01322  -0.30076   0.00000  -0.61571
  22        2S         -1.07941   2.92646  -0.57524   0.00000  -2.27601
  23        3PX        -0.01093  -0.02152  -0.15114   0.00000   0.05143
  24        3PY        -0.00326   0.03513  -0.11461   0.00000  -0.12262
  25        3PZ         0.00000   0.00000   0.00000  -0.17419   0.00000
                          11        12        13        14        15
                           V         V         V         V         V
     Eigenvalues --     1.23339   1.44249   1.46664   1.67264   1.70572
   1 1   O  1S         -0.01873  -0.01537   0.06680   0.00000  -0.02556
   2        2S         -1.18623   0.01740  -0.23614   0.00000  -0.07348
   3        2PX         0.07276  -0.44581  -0.16643   0.00000   0.10403
   4        2PY         0.08601   0.35465  -0.04648   0.00000   0.12549
   5        2PZ         0.00000   0.00000   0.00000   0.00365   0.00000
   6        3S          5.69715  -0.13109   1.08689   0.00000   0.20491
   7        3PX         0.35892   0.82051   0.15872   0.00000   0.03271
   8        3PY         0.60599  -0.56963  -0.04103   0.00000   0.08631
   9        3PZ         0.00000   0.00000   0.00000  -0.00246   0.00000
  10        4XX        -0.54534   0.37359   0.19535   0.00000  -0.14127
  11        4YY        -0.52226  -0.38042  -0.25118   0.00000  -0.49311
  12        4ZZ        -0.39031   0.12126  -0.59517   0.00000   0.67146
  13        4XY         0.02749   0.24458  -0.42026   0.00000  -0.60723
  14        4XZ         0.00000   0.00000   0.00000   0.68836   0.00000
  15        4YZ         0.00000   0.00000   0.00000  -0.53817   0.00000
  16 2   H  1S         -0.49901   0.13404   0.31951   0.00000  -0.10814
  17        2S         -1.48442  -1.44442  -0.64901   0.00000   0.00194
  18        3PX         0.19797   0.19778   0.33734   0.00000  -0.07891
  19        3PY         0.10602   0.10105  -0.05207   0.00000  -0.06365
  20        3PZ         0.00000   0.00000   0.00000   0.11971   0.00000
  21 3   H  1S         -0.51528  -0.25864   0.22749   0.00000  -0.10006
  22        2S         -1.63491   1.56242  -0.15206   0.00000  -0.05514
  23        3PX         0.03771   0.02325  -0.15109   0.00000  -0.03326
  24        3PY         0.23089  -0.33108   0.20330   0.00000  -0.08781
  25        3PZ         0.00000   0.00000   0.00000  -0.12037   0.00000
                          16        17        18        19        20
                           V         V         V         V         V
     Eigenvalues --     1.73788   2.99324   3.08125   3.22094   3.26278
   1 1   O  1S          0.00000  -0.12718   0.00948  -0.01033   0.00000
   2        2S          0.00000  -1.06744   0.06266  -0.04220   0.00000
   3        2PX         0.00000   0.18854  -0.30782  -0.14244   0.00000
   4        2PY         0.00000   0.27821   0.19857   0.12032   0.00000
   5        2PZ        -0.11456   0.00000   0.00000   0.00000  -0.04332
   6        3S          0.00000   1.66221  -0.13593   0.13194   0.00000
   7        3PX         0.00000   0.39378  -1.02178   1.18280   0.00000
   8        3PY         0.00000   0.82708   0.64997  -0.77480   0.00000
   9        3PZ        -0.02202   0.00000   0.00000   0.00000  -0.01894
  10        4XX         0.00000   1.06466  -0.27544   1.47196   0.00000
  11        4YY         0.00000   0.94775   0.16513  -1.38931   0.00000
  12        4ZZ         0.00000  -0.46258   0.03806  -0.03661   0.00000
  13        4XY         0.00000  -0.51606  -0.04606   0.54667   0.00000
  14        4XZ         0.58232   0.00000   0.00000   0.00000   1.32052
  15        4YZ         0.75934   0.00000   0.00000   0.00000  -0.97552
  16 2   H  1S          0.00000  -1.11539   0.32182  -1.12478   0.00000
  17        2S          0.00000  -0.27248   0.78392  -0.81115   0.00000
  18        3PX         0.00000  -0.74400   0.66141  -0.95732   0.00000
  19        3PY         0.00000  -0.07323  -1.03801  -0.61144   0.00000
  20        3PZ         0.05993   0.00000   0.00000   0.00000  -1.47700
  21 3   H  1S          0.00000  -1.24620  -0.17098   0.97814   0.00000
  22        2S          0.00000  -0.46303  -0.72197   0.75264   0.00000
  23        3PX         0.00000   0.29506   1.15938   0.29631   0.00000
  24        3PY         0.00000  -0.86751  -0.18749   1.02908   0.00000
  25        3PZ         0.05009   0.00000   0.00000   0.00000   1.56729
                          21        22        23        24        25
                           V         V         V         V         V
     Eigenvalues --     3.39853   3.70320   3.83408   6.39163   9.44014
   1 1   O  1S          0.00000  -0.28882  -0.36699  -0.00209   0.86422
   2        2S          0.00000   0.43030   0.13035  -0.01633   6.08572
   3        2PX         0.00000  -0.50586   0.55792   1.94974   1.00803
   4        2PY         0.00000  -0.71262   0.78410  -1.38613   1.41571
   5        2PZ        -1.25072   0.00000   0.00000   0.00000   0.00000
   6        3S          0.00000   3.78626   4.95678  -0.00047   0.61868
   7        3PX         0.00000   0.01637   0.49735   1.03785   0.28506
   8        3PY         0.00000   0.05919   0.71481  -0.73611   0.39984
   9        3PZ        -0.50602   0.00000   0.00000   0.00000   0.00000
  10        4XX         0.00000  -0.35903  -1.85582   0.69949   1.11392
  11        4YY         0.00000  -1.38806  -0.95047  -0.70578   0.49449
  12        4ZZ         0.00000  -1.23967  -1.45201   0.00013  -0.05798
  13        4XY         0.00000  -1.72586   1.45486   0.28882  -1.00685
  14        4XZ        -0.61794   0.00000   0.00000   0.00000   0.00000
  15        4YZ        -0.77373   0.00000   0.00000   0.00000   0.00000
  16 2   H  1S          0.00000  -0.61636  -0.12199  -3.40036  -4.24648
  17        2S          0.00000  -0.65577  -1.03556  -0.81311   0.04533
  18        3PX         0.00000   0.02889   0.18235   1.43103   1.76217
  19        3PY         0.00000   1.38791  -1.28828  -0.09513   0.62004
  20        3PZ         1.35103   0.00000   0.00000   0.00000   0.00000
  21 3   H  1S          0.00000  -0.64304  -0.12411   3.42631  -4.23049
  22        2S          0.00000  -0.67969  -1.04532   0.81164   0.04530
  23        3PX         0.00000   1.30626  -1.27512   0.56958  -0.00078
  24        3PY         0.00000   0.46945  -0.26764  -1.32374   1.85785
  25        3PZ         1.24578   0.00000   0.00000   0.00000   0.00000
     Density Matrix:
                           1         2         3         4         5
   1 1   O  1S          2.10358
   2        2S         -0.14394   0.34151
   3        2PX         0.00160  -0.04741   0.79075
   4        2PY         0.00100  -0.05577   0.05647   0.81858
   5        2PZ         0.00000   0.00000   0.00000   0.00000   0.87430
   6        3S         -0.07409   0.23150  -0.24981  -0.32943   0.00000
   7        3PX         0.03908  -0.08494   0.19447   0.16324   0.00000
   8        3PY         0.06005  -0.12705   0.16436   0.31219   0.00000
   9        3PZ         0.00000   0.00000   0.00000   0.00000   0.60321
  10        4XX        -0.00791  -0.01736   0.01617  -0.04689   0.00000
  11        4YY        -0.01430  -0.00850  -0.01455   0.04020   0.00000
  12        4ZZ        -0.01552  -0.00711  -0.02016  -0.02964   0.00000
  13        4XY        -0.01078   0.01326   0.06648   0.07036   0.00000
  14        4XZ         0.00000   0.00000   0.00000   0.00000   0.03479
  15        4YZ         0.00000   0.00000   0.00000   0.00000   0.04277
  16 2   H  1S         -0.14506   0.18411   0.49088  -0.00980   0.00000
  17        2S         -0.02395   0.02429   0.16213  -0.10947   0.00000
  18        3PX         0.01726  -0.02033  -0.03536   0.01391   0.00000
  19        3PY         0.01038  -0.02153  -0.00728  -0.02125   0.00000
  20        3PZ         0.00000   0.00000   0.00000   0.00000   0.02592
  21 3   H  1S         -0.14719   0.19335  -0.17400   0.45593   0.00000
  22        2S         -0.02304   0.02293  -0.13628   0.12897   0.00000
  23        3PX         0.00320  -0.01221  -0.02397  -0.00119   0.00000
  24        3PY         0.01766  -0.02406   0.01508  -0.02371   0.00000
  25        3PZ         0.00000   0.00000   0.00000   0.00000   0.02923
                           6         7         8         9        10
   6        3S          0.31331
   7        3PX        -0.15582   0.08737
   8        3PY        -0.22412   0.11419   0.17370
   9        3PZ         0.00000   0.00000   0.00000   0.41618
  10        4XX         0.00177  -0.00122  -0.00881   0.00000   0.00443
  11        4YY        -0.01521   0.00516   0.01400   0.00000  -0.00220
  12        4ZZ         0.01111  -0.00831  -0.01180   0.00000   0.00200
  13        4XY        -0.03353   0.02429   0.03174   0.00000  -0.00374
  14        4XZ         0.00000   0.00000   0.00000   0.02400   0.00000
  15        4YZ         0.00000   0.00000   0.00000   0.02951   0.00000
  16 2   H  1S         -0.01477   0.07219   0.02352   0.00000   0.00089
  17        2S          0.01038   0.01263  -0.01871   0.00000   0.00904
  18        3PX        -0.00760  -0.00158   0.00502   0.00000  -0.00051
  19        3PY        -0.00342  -0.00117  -0.00236   0.00000   0.00242
  20        3PZ         0.00000   0.00000   0.00000   0.01788   0.00000
  21 3   H  1S          0.00035   0.00232   0.07393   0.00000  -0.04311
  22        2S          0.00380  -0.01265   0.01582   0.00000  -0.01224
  23        3PX        -0.00062  -0.00323  -0.00084   0.00000   0.00029
  24        3PY        -0.00975   0.00390   0.00127   0.00000   0.00315
  25        3PZ         0.00000   0.00000   0.00000   0.02017   0.00000
                          11        12        13        14        15
  11        4YY         0.00264
  12        4ZZ        -0.00069   0.00199
  13        4XY         0.00168  -0.00460   0.01225
  14        4XZ         0.00000   0.00000   0.00000   0.00138
  15        4YZ         0.00000   0.00000   0.00000   0.00170   0.00209
  16 2   H  1S         -0.01506  -0.01679   0.05119   0.00000   0.00000
  17        2S         -0.00953  -0.00061   0.00557   0.00000   0.00000
  18        3PX         0.00184   0.00090  -0.00303   0.00000   0.00000
  19        3PY        -0.00045   0.00160  -0.00377   0.00000   0.00000
  20        3PZ         0.00000   0.00000   0.00000   0.00103   0.00127
  21 3   H  1S          0.02312  -0.01767   0.03678   0.00000   0.00000
  22        2S          0.00916  -0.00192   0.00124   0.00000   0.00000
  23        3PX         0.00076   0.00103  -0.00284   0.00000   0.00000
  24        3PY        -0.00110   0.00115  -0.00232   0.00000   0.00000
  25        3PZ         0.00000   0.00000   0.00000   0.00116   0.00143
                          16        17        18        19        20
  16 2   H  1S          0.44106
  17        2S          0.12414   0.05336
  18        3PX        -0.03652  -0.01142   0.00331
  19        3PY        -0.01803  -0.00024   0.00140   0.00221
  20        3PZ         0.00000   0.00000   0.00000   0.00000   0.00077
  21 3   H  1S          0.00156  -0.08826   0.00342  -0.02513   0.00000
  22        2S         -0.07701  -0.04662   0.00733  -0.00392   0.00000
  23        3PX        -0.02339  -0.00604   0.00194   0.00115   0.00000
  24        3PY        -0.00502   0.00479   0.00043   0.00221   0.00000
  25        3PZ         0.00000   0.00000   0.00000   0.00000   0.00087
                          21        22        23        24        25
  21 3   H  1S          0.44448
  22        2S          0.12513   0.04885
  23        3PX        -0.00300   0.00328   0.00128
  24        3PY        -0.03349  -0.00861   0.00052   0.00289
  25        3PZ         0.00000   0.00000   0.00000   0.00000   0.00098
    Full Mulliken population analysis:
                           1         2         3         4         5
   1 1   O  1S          2.10358
   2        2S         -0.03364   0.34151
   3        2PX         0.00000   0.00000   0.79075
   4        2PY         0.00000   0.00000   0.00000   0.81858
   5        2PZ         0.00000   0.00000   0.00000   0.00000   0.87430
   6        3S         -0.01239   0.17679   0.00000   0.00000   0.00000
   7        3PX         0.00000   0.00000   0.09753   0.00000   0.00000
   8        3PY         0.00000   0.00000   0.00000   0.15657   0.00000
   9        3PZ         0.00000   0.00000   0.00000   0.00000   0.30252
  10        4XX        -0.00027  -0.00950   0.00000   0.00000   0.00000
  11        4YY        -0.00048  -0.00465   0.00000   0.00000   0.00000
  12        4ZZ        -0.00052  -0.00389   0.00000   0.00000   0.00000
  13        4XY         0.00000   0.00000   0.00000   0.00000   0.00000
  14        4XZ         0.00000   0.00000   0.00000   0.00000   0.00000
  15        4YZ         0.00000   0.00000   0.00000   0.00000   0.00000
  16 2   H  1S         -0.02366   0.12237   0.24213   0.00000   0.00000
  17        2S         -0.00240   0.01278   0.01771   0.00000   0.00000
  18        3PX        -0.00526   0.01140   0.00173   0.00000   0.00000
  19        3PY         0.00000   0.00000   0.00000  -0.01178   0.00000
  20        3PZ         0.00000   0.00000   0.00000   0.00000   0.01436
  21 3   H  1S         -0.02401   0.12852   0.02865   0.21199   0.00000
  22        2S         -0.00231   0.01206   0.00497   0.01328   0.00000
  23        3PX         0.00033  -0.00228  -0.01167  -0.00023   0.00000
  24        3PY        -0.00507   0.01272   0.00286  -0.00043   0.00000
  25        3PZ         0.00000   0.00000   0.00000   0.00000   0.01620
                           6         7         8         9        10
   6        3S          0.31331
   7        3PX         0.00000   0.08737
   8        3PY         0.00000   0.00000   0.17370
   9        3PZ         0.00000   0.00000   0.00000   0.41618
  10        4XX         0.00124   0.00000   0.00000   0.00000   0.00443
  11        4YY        -0.01063   0.00000   0.00000   0.00000  -0.00073
  12        4ZZ         0.00777   0.00000   0.00000   0.00000   0.00067
  13        4XY         0.00000   0.00000   0.00000   0.00000   0.00000
  14        4XZ         0.00000   0.00000   0.00000   0.00000   0.00000
  15        4YZ         0.00000   0.00000   0.00000   0.00000   0.00000
  16 2   H  1S         -0.01003   0.03564   0.00000   0.00000   0.00063
  17        2S          0.00900   0.00409   0.00000   0.00000   0.00520
  18        3PX         0.00175  -0.00044   0.00000   0.00000  -0.00008
  19        3PY         0.00000   0.00000  -0.00109   0.00000   0.00000
  20        3PZ         0.00000   0.00000   0.00000   0.00827   0.00000
  21 3   H  1S          0.00024  -0.00038   0.03441   0.00000  -0.01864
  22        2S          0.00330   0.00137   0.00482   0.00000  -0.00675
  23        3PX        -0.00005  -0.00143  -0.00005   0.00000  -0.00004
  24        3PY         0.00212   0.00023   0.00038   0.00000  -0.00089
  25        3PZ         0.00000   0.00000   0.00000   0.00932   0.00000
                          11        12        13        14        15
  11        4YY         0.00264
  12        4ZZ        -0.00023   0.00199
  13        4XY         0.00000   0.00000   0.01225
  14        4XZ         0.00000   0.00000   0.00000   0.00138
  15        4YZ         0.00000   0.00000   0.00000   0.00000   0.00209
  16 2   H  1S         -0.00600  -0.00669   0.00000   0.00000   0.00000
  17        2S         -0.00523  -0.00033   0.00000   0.00000   0.00000
  18        3PX        -0.00049  -0.00024   0.00000   0.00000   0.00000
  19        3PY         0.00000   0.00000  -0.00237   0.00000   0.00000
  20        3PZ         0.00000   0.00000   0.00000   0.00065   0.00000
  21 3   H  1S          0.01548  -0.00704  -0.00612   0.00000   0.00000
  22        2S          0.00525  -0.00105  -0.00002   0.00000   0.00000
  23        3PX         0.00014   0.00009  -0.00152   0.00000   0.00000
  24        3PY        -0.00019  -0.00029   0.00012   0.00000   0.00000
  25        3PZ         0.00000   0.00000   0.00000  -0.00024   0.00085
                          16        17        18        19        20
  16 2   H  1S          0.44106
  17        2S          0.08172   0.05336
  18        3PX         0.00000   0.00000   0.00331
  19        3PY         0.00000   0.00000   0.00000   0.00221
  20        3PZ         0.00000   0.00000   0.00000   0.00000   0.00077
  21 3   H  1S          0.00059  -0.04206  -0.00116  -0.00602   0.00000
  22        2S         -0.03670  -0.03824  -0.00097  -0.00037   0.00000
  23        3PX        -0.00793  -0.00080  -0.00040   0.00038   0.00000
  24        3PY         0.00120  -0.00045   0.00014   0.00006   0.00000
  25        3PZ         0.00000   0.00000   0.00000   0.00000   0.00022
                          21        22        23        24        25
  21 3   H  1S          0.44448
  22        2S          0.08237   0.04885
  23        3PX         0.00000   0.00000   0.00128
  24        3PY         0.00000   0.00000   0.00000   0.00289
  25        3PZ         0.00000   0.00000   0.00000   0.00000   0.00098
     Gross orbital populations:
                           1
   1 1   O  1S          1.99391
   2        2S          0.76419
   3        2PX         1.17465
   4        2PY         1.18798
   5        2PZ         1.20738
   6        3S          0.48241
   7        3PX         0.22398
   8        3PY         0.36875
   9        3PZ         0.73630
  10        4XX        -0.02473
  11        4YY        -0.00513
  12        4ZZ        -0.00976
  13        4XY         0.00234
  14        4XZ         0.00179
  15        4YZ         0.00294
  16 2   H  1S          0.83435
  17        2S          0.09435
  18        3PX         0.00930
  19        3PY        -0.01897
  20        3PZ         0.02427
  21 3   H  1S          0.84131
  22        2S          0.08986
  23        3PX        -0.02419
  24        3PY         0.01540
  25        3PZ         0.02732
          Condensed to atoms (all electrons):
               1          2          3
     1  O    7.276390   0.411639   0.418967
     2  H    0.411639   0.664150  -0.132493
     3  H    0.418967  -0.132493   0.663236
 Mulliken charges:
               1
     1  O   -0.106995
     2  H    0.056704
     3  H    0.050290
     4  O   -0.834000
     5  H    0.417000
     6  H    0.417000
 Sum of Mulliken charges =   0.00000
 Mulliken charges with hydrogens summed into heavy atoms:
               1
     1  O    0.000000
     4  O    0.000000
 Electronic spatial extent (au):  <R**2>=             61.0733
 Charge=              0.0000 electrons
 Dipole moment (field-independent basis, Debye):
    X=              1.5028    Y=              2.1947    Z=              0.0000  Tot=              2.6600
 Quadrupole moment (field-independent basis, Debye-Ang):
   XX=             -6.1925   YY=             -7.1301   ZZ=             -6.0350
   XY=             -2.7732   XZ=              0.0000   YZ=              0.0000
 Traceless Quadrupole moment (field-independent basis, Debye-Ang):
   XX=              0.2600   YY=             -0.6776   ZZ=              0.4175
   XY=             -2.7732   XZ=              0.0000   YZ=              0.0000
 Octapole moment (field-independent basis, Debye-Ang**2):
  XXX=              4.3682  YYY=             23.5235  ZZZ=              0.0000  XYY=              2.3324
  XXY=              7.8819  XXZ=              0.0000  XZZ=              1.1971  YZZ=              7.0610
  YYZ=              0.0000  XYZ=              0.0000
 Hexadecapole moment (field-independent basis, Debye-Ang**3):
 XXXX=             -5.5674 YYYY=            -53.2650 ZZZZ=             -3.9647 XXXY=             -6.2647
 XXXZ=              0.0000 YYYX=             -8.0107 YYYZ=              0.0000 ZZZX=              0.0000
 ZZZY=              0.0000 XXYY=             -7.2366 XXZZ=             -1.4659 YYZZ=             -9.5157
 XXYZ=              0.0000 YYXZ=              0.0000 ZZXY=             -1.4218
 N-N= 1.665217697085D+01 E-N=-2.148173139540D+02  KE= 8.008701376063D+01
 Orbital energies and kinetic energies (alpha):
                                 1                 2
   1         O               -19.105938         28.967052
   2         O                -1.295757          3.424131
   3         O                -0.767872          2.723286
   4         O                -0.405290          2.501463
   5         O                -0.344697          2.427575
   6         V                 0.137412          0.837892
   7         V                 0.251883          0.701189
   8         V                 0.774222          2.461641
   9         V                 0.828253          2.908617
  10         V                 0.962362          1.945916
  11         V                 1.233388          2.364350
  12         V                 1.442493          3.480677
  13         V                 1.466643          3.044382
  14         V                 1.672636          2.820092
  15         V                 1.705719          2.861777
  16         V                 1.737885          2.825904
  17         V                 2.993243          4.476190
  18         V                 3.081246          4.451556
  19         V                 3.220940          4.206246
  20         V                 3.262783          4.175222
  21         V                 3.398530          5.912913
  22         V                 3.703204          7.684798
  23         V                 3.834081          8.666400
  24         V                 6.391634         12.683698
  25         V                 9.440144         17.086796
 Total kinetic energy from orbitals= 8.008701376063D+01
 No NMR shielding tensors so no spin-rotation constants.
 Leave Link  601 at Wed Mar 25 09:50:36 2015, MaxMem=   134217728 cpu:         0.2
 (Enter /opt/g09_D01_em64t/g09/l9999.exe)

 Test job not archived.
 1\1\GINC-EAM\SP\RB3LYP\6-31G(d,p)\H4O2\DULIKAI\25-Mar-2015\0\\#P IOp(2
 /15=1,5/32=2,5/38=1) B3LYP/6-31G(D,P) pop=full\\ch2nh2 Point 2 -- high
  level on model system.\\0,1\O,0,-0.1951103,-1.16114422,0.\H,0,0.31289
 982,-1.16114422,0.\H,0,-0.36468756,-0.6822728,0.\O,0,-1.24204361,0.180
 83393,0.\H,0,-0.73403349,0.18083393,0.\H,0,-1.41162088,0.65970535,0.\\
 Version=EM64L-G09RevD.01\HF=-75.5442756\RMSD=8.211e-09\Dipole=0.591257
 8,0.8634763,0.\Quadrupole=0.1933257,-0.5037611,0.3104354,-2.061828,0.,
 0.\PG=CS [SG(H4O2)]\\@


 HAPPINESS IS NOT HAVING WHAT YOU WANT --
 HAPPINESS IS WANTING WHAT YOU HAVE!

              -- FROM MRS. SEVERN'S DESK
 Job cpu time:       0 days  0 hours  0 minutes  2.3 seconds.
 File lengths (MBytes):  RWF=      5 Int=      0 D2E=      0 Chk=      3 Scr=      1
 Normal termination of Gaussian 09 at Wed Mar 25 09:50:36 2015.
 Initial command:
 /opt/g09_D01_em64t/g09/l1.exe "/tmp/Gau-32322.inp" -scrdir="/tmp/"
 Entering Link 1 = /opt/g09_D01_em64t/g09/l1.exe PID=     32334.
  
 Copyright (c) 1988,1990,1992,1993,1995,1998,2003,2009,2013,
            Gaussian, Inc.  All Rights Reserved.
  
 This is part of the Gaussian(R) 09 program.  It is based on
 the Gaussian(R) 03 system (copyright 2003, Gaussian, Inc.),
 the Gaussian(R) 98 system (copyright 1998, Gaussian, Inc.),
 the Gaussian(R) 94 system (copyright 1995, Gaussian, Inc.),
 the Gaussian 92(TM) system (copyright 1992, Gaussian, Inc.),
 the Gaussian 90(TM) system (copyright 1990, Gaussian, Inc.),
 the Gaussian 88(TM) system (copyright 1988, Gaussian, Inc.),
 the Gaussian 86(TM) system (copyright 1986, Carnegie Mellon
 University), and the Gaussian 82(TM) system (copyright 1983,
 Carnegie Mellon University). Gaussian is a federally registered
 trademark of Gaussian, Inc.
  
 This software contains proprietary and confidential information,
 including trade secrets, belonging to Gaussian, Inc.
  
 This software is provided under written license and may be
 used, copied, transmitted, or stored only in accord with that
 written license.
  
 The following legend is applicable only to US Government
 contracts under FAR:
  
                    RESTRICTED RIGHTS LEGEND
  
 Use, reproduction and disclosure by the US Government is
 subject to restrictions as set forth in subparagraphs (a)
 and (c) of the Commercial Computer Software - Restricted
 Rights clause in FAR 52.227-19.
  
 Gaussian, Inc.
 340 Quinnipiac St., Bldg. 40, Wallingford CT 06492
  
  
 ---------------------------------------------------------------
 Warning -- This program may not be used in any manner that
 competes with the business of Gaussian, Inc. or will provide
 assistance to any competitor of Gaussian, Inc.  The licensee
 of this program is prohibited from giving any competitor of
 Gaussian, Inc. access to this program.  By using this program,
 the user acknowledges that Gaussian, Inc. is engaged in the
 business of creating and licensing software in the field of
 computational chemistry and represents and warrants to the
 licensee that it is not a competitor of Gaussian, Inc. and that
 it will not use this program in any manner prohibited above.
 ---------------------------------------------------------------
  

 Cite this work as:
 Gaussian 09, Revision D.01,
 M. J. Frisch, G. W. Trucks, H. B. Schlegel, G. E. Scuseria, 
 M. A. Robb, J. R. Cheeseman, G. Scalmani, V. Barone, B. Mennucci, 
 G. A. Petersson, H. Nakatsuji, M. Caricato, X. Li, H. P. Hratchian, 
 A. F. Izmaylov, J. Bloino, G. Zheng, J. L. Sonnenberg, M. Hada, 
 M. Ehara, K. Toyota, R. Fukuda, J. Hasegawa, M. Ishida, T. Nakajima, 
 Y. Honda, O. Kitao, H. Nakai, T. Vreven, J. A. Montgomery, Jr., 
 J. E. Peralta, F. Ogliaro, M. Bearpark, J. J. Heyd, E. Brothers, 
 K. N. Kudin, V. N. Staroverov, T. Keith, R. Kobayashi, J. Normand, 
 K. Raghavachari, A. Rendell, J. C. Burant, S. S. Iyengar, J. Tomasi, 
 M. Cossi, N. Rega, J. M. Millam, M. Klene, J. E. Knox, J. B. Cross, 
 V. Bakken, C. Adamo, J. Jaramillo, R. Gomperts, R. E. Stratmann, 
 O. Yazyev, A. J. Austin, R. Cammi, C. Pomelli, J. W. Ochterski, 
 R. L. Martin, K. Morokuma, V. G. Zakrzewski, G. A. Voth, 
 P. Salvador, J. J. Dannenberg, S. Dapprich, A. D. Daniels, 
 O. Farkas, J. B. Foresman, J. V. Ortiz, J. Cioslowski, 
 and D. J. Fox, Gaussian, Inc., Wallingford CT, 2013.
 
 ******************************************
 Gaussian 09:  EM64L-G09RevD.01 24-Apr-2013
                25-Mar-2015 
 ******************************************
 %chk=onlyinputfiles.chk
 %mem=1GB
 %nproc=2
 Will use up to    2 processors via shared memory.
 %nproclinda=1
 Will use up to    1 processors via Linda.
 ----------------------------------------------------------------------
 #P force B3LYP/6-31G(D,P) TD(SINGLET,nstates=2,root=1) IOp(2/15=1,5/32
 =2,5/38=1) geom=AllCheck Guess=Read iop(9/40=20) pop=full
 ----------------------------------------------------------------------
 1/10=7,29=7,30=1,38=1/1,3;
 2/12=2,15=1,40=1/2;
 3/5=1,6=6,7=101,11=9,14=-4,16=1,25=1,30=1,71=1,74=-5,116=-2/1,2,8,3;
 4/5=1/1;
 5/5=2,32=2,38=1/2;
 8/6=1,10=2,107=1,108=2/1;
 9/8=1,15=2,40=20,41=2,42=1,48=1,70=2/14;
 10/5=4/2;
 6/7=3,18=1/1;
 7/12=6,13=5,14=1,29=1/1,2,3,16;
 1/10=7,30=1/3;
 99//99;
 Leave Link    1 at Wed Mar 25 09:50:36 2015, MaxMem=   134217728 cpu:         0.1
 (Enter /opt/g09_D01_em64t/g09/l101.exe)
 Structure from the checkpoint file:  "onlyinputfiles.chk"
 ---------------------------------------------
 ch2nh2 Point 2 -- high level on model system.
 ---------------------------------------------
 Charge =  0 Multiplicity = 1
 Z-Matrix found in file.
 O,0,-0.1951103,-1.16114422,0.
 H,0,0.31289982,-1.16114422,0.
 H,0,-0.36468756,-0.6822728,0.
 O,0,-1.24204361,0.18083393,0.
 H,0,-0.73403349,0.18083393,0.
 H,0,-1.41162088,0.65970535,0.
 Recover connectivity data from disk.
 NAtoms=      6 NQM=        6 NQMF=       0 NMMI=      0 NMMIF=      0
                NMic=       0 NMicF=      0.
                    Isotopes and Nuclear Properties:
 (Nuclear quadrupole moments (NQMom) in fm**2, nuclear magnetic moments (NMagM)
  in nuclear magnetons)

  Atom         1           2           3           4           5           6
 IAtWgt=          16           1           1          16           1           1
 AtmWgt=  15.9949146   1.0078250   1.0078250  15.9949146   1.0078250   1.0078250
 NucSpn=           0           1           1           0           1           1
 AtZEff=  -5.6000000  -1.0000000  -1.0000000  -6.0000000  -1.0000000  -1.0000000
 NQMom=    0.0000000   0.0000000   0.0000000   0.0000000   0.0000000   0.0000000
 NMagM=    0.0000000   2.7928460   2.7928460   0.0000000   2.7928460   2.7928460
 AtZNuc=   8.0000000   1.0000000   1.0000000   8.0000000   1.0000000   1.0000000
 Recovering MM parameters from chk file.
 MM Charge=              0.0000 electrons
 MM Dipole moment (Debye):
    X=              1.3557    Y=              1.9183    Z=              0.0000  Tot=              2.3490
 MM Quadrupole moment (Debye-Ang):
   XX=             -0.7994   YY=             -0.9619   ZZ=              0.0000
   XY=             -2.3683   XZ=              0.0000   YZ=              0.0000
 MM Traceless Quadrupole moment (Debye-Ang):
   XX=             -0.2123   YY=             -0.3748   ZZ=              0.5871
   XY=             -2.3683   XZ=              0.0000   YZ=              0.0000
 MM Octapole moment (Debye-Ang**2):
  XXX=              1.2433  YYY=              3.0627  ZZZ=              0.0000  XYY=              0.4429
  XXY=              1.4783  XXZ=              0.0000  XZZ=              0.0000  YZZ=              0.0000
  YYZ=              0.0000  XYZ=              0.0000
 MM Hexadecapole moment (Debye-Ang**3):
 XXXX=             -0.9499 YYYY=             -2.8297 ZZZZ=              0.0000 XXXY=             -2.5116
 XXXZ=              0.0000 YYYX=             -2.7638 YYYZ=              0.0000 ZZZX=              0.0000
 ZZZY=              0.0000 XXYY=              1.7530 XXZZ=              0.0000 YYZZ=              0.0000
 XXYZ=              0.0000 YYXZ=              0.0000 ZZXY=              0.0000
 Leave Link  101 at Wed Mar 25 09:50:36 2015, MaxMem=   134217728 cpu:         0.1
 (Enter /opt/g09_D01_em64t/g09/l103.exe)

 GradGradGradGradGradGradGradGradGradGradGradGradGradGradGradGradGradGrad
 Berny optimization.
 Initialization pass.
 Trust Radius=3.00D-01 FncErr=1.00D-07 GrdErr=1.00D-07
 Number of steps in this run=      2 maximum allowed number of steps=      2.
 GradGradGradGradGradGradGradGradGradGradGradGradGradGradGradGradGradGrad

 Leave Link  103 at Wed Mar 25 09:50:36 2015, MaxMem=   134217728 cpu:         0.0
 (Enter /opt/g09_D01_em64t/g09/l202.exe)
                          Input orientation:                          
 ---------------------------------------------------------------------
 Center     Atomic      Atomic             Coordinates (Angstroms)
 Number     Number       Type             X           Y           Z
 ---------------------------------------------------------------------
      1          8    10081003       -0.195110   -1.161144    0.000000
      2          1    10011000        0.312900   -1.161144    0.000000
      3          1    10011000       -0.364688   -0.682273    0.000000
      4          8           6       -1.242044    0.180834    0.000000
      5          1           6       -0.734033    0.180834    0.000000
      6          1           6       -1.411621    0.659705    0.000000
 ---------------------------------------------------------------------
                    Distance matrix (angstroms):
                    1          2          3          4          5
     1  O    0.000000
     2  H    0.508010   0.000000
     3  H    0.508010   0.829724   0.000000
     4  O    1.702050   2.053961   1.230734   0.000000
     5  H    1.446148   1.702050   0.938813   0.508010   0.000000
     6  H    2.189838   2.507881   1.702050   0.508010   0.829724
                    6
     6  H    0.000000
 Symmetry turned off by external request.
 Stoichiometry    H4O2
 Framework group  CS[SG(H4O2)]
 Deg. of freedom     9
 Full point group                 CS      NOp   2
 Rotational constants (GHZ):   1488.3904186     18.8925889     18.6557853
 Leave Link  202 at Wed Mar 25 09:50:36 2015, MaxMem=   134217728 cpu:         0.0
 (Enter /opt/g09_D01_em64t/g09/l301.exe)
 Standard basis: 6-31G(d,p) (6D, 7F)
 Ernie: Thresh=  0.10000D-02 Tol=  0.10000D-05 Strict=F.
    25 basis functions,    42 primitive gaussians,    25 cartesian basis functions
     5 alpha electrons        5 beta electrons
       nuclear repulsion energy        16.6521769709 Hartrees.
 Nuclear repulsion from inactive atom pairs=       -0.6136354905 Hartrees.
 IExCor=  402 DFT=T Ex+Corr=B3LYP ExCW=0 ScaHFX=  0.200000
 ScaDFX=  0.800000  0.720000  1.000000  0.810000 ScalE2=  1.000000  1.000000
 IRadAn=      0 IRanWt=     -1 IRanGd=            0 ICorTp=0 IEmpDi=  4
 NAtoms=    6 NActive=    3 NUniq=    3 SFac= 1.00D+00 NAtFMM=   60 NAOKFM=F Big=F
 Integral buffers will be    131072 words long.
 Regular integral format.
 Two-electron integral symmetry is turned off.
 Leave Link  301 at Wed Mar 25 09:50:36 2015, MaxMem=   134217728 cpu:         0.1
 (Enter /opt/g09_D01_em64t/g09/l302.exe)
 NPDir=0 NMtPBC=     1 NCelOv=     1 NCel=       1 NClECP=     1 NCelD=      1
         NCelK=      1 NCelE2=     1 NClLst=     1 CellRange=     0.0.
 One-electron integrals computed using PRISM.
 NBasis=    25 RedAO= T EigKep=  9.48D-03  NBF=    25
 NBsUse=    25 1.00D-06 EigRej= -1.00D+00 NBFU=    25
 Precomputing XC quadrature grid using
 IXCGrd= 4 IRadAn=           0 IRanWt=          -1 IRanGd=           0 AccXCQ= 0.00D+00.
 Generated NRdTot=       0 NPtTot=           0 NUsed=           0 NTot=          32
 NSgBfM=    25    25    25    25    25 MxSgAt=     3 MxSgA2=     3.
 Leave Link  302 at Wed Mar 25 09:50:36 2015, MaxMem=   134217728 cpu:         0.2
 (Enter /opt/g09_D01_em64t/g09/l308.exe)
 Leave Link  308 at Wed Mar 25 09:50:37 2015, MaxMem=   134217728 cpu:         0.1
 (Enter /opt/g09_D01_em64t/g09/l303.exe)
 DipDrv:  MaxL=1.
 Leave Link  303 at Wed Mar 25 09:50:37 2015, MaxMem=   134217728 cpu:         0.1
 (Enter /opt/g09_D01_em64t/g09/l401.exe)
 Initial guess from the checkpoint file:  "onlyinputfiles.chk"
 B after Tr=     0.000000    0.000000    0.000000
         Rot=    1.000000    0.000000    0.000000    0.000000 Ang=   0.00 deg.
 Guess basis will be translated and rotated to current coordinates.
 JPrj=2 DoOrth=T DoCkMO=T.
 Leave Link  401 at Wed Mar 25 09:50:37 2015, MaxMem=   134217728 cpu:         0.1
 (Enter /opt/g09_D01_em64t/g09/l502.exe)
 Closed shell SCF:
 Using DIIS extrapolation, IDIIS=  1040.
 Two-electron integral symmetry not used.
 Keep R1 ints in memory in canonical form, NReq=933384.
 IVT=       20737 IEndB=       20737 NGot=   134217728 MDV=   134144017
 LenX=   134144017 LenY=   134142951
 Requested convergence on RMS density matrix=1.00D-08 within 128 cycles.
 Requested convergence on MAX density matrix=1.00D-06.
 Requested convergence on             energy=1.00D-06.
 No special actions if energy rises.
 FoFCou: FMM=F IPFlag=           0 FMFlag=           0 FMFlg1=           0
         NFxFlg=           0 DoJE=F BraDBF=F KetDBF=F FulRan=T
         wScrn=  0.000000 ICntrl=     600 IOpCl=  0 I1Cent=           0 NGrid=           0
         NMat0=    1 NMatS0=    325 NMatT0=    0 NMatD0=    1 NMtDS0=    0 NMtDT0=    0
 Symmetry not used in FoFCou.

 Cycle   1  Pass 1  IDiag  1:
 E= -75.5442755924836    
 DIIS: error= 2.09D-08 at cycle   1 NSaved=   1.
 NSaved= 1 IEnMin= 1 EnMin= -75.5442755924836     IErMin= 1 ErrMin= 2.09D-08
 ErrMax= 2.09D-08  0.00D+00 EMaxC= 1.00D-01 BMatC= 7.88D-15 BMatP= 7.88D-15
 IDIUse=1 WtCom= 1.00D+00 WtEn= 0.00D+00
 Coeff-Com:  0.100D+01
 Coeff:      0.100D+01
 Gap=     0.482 Goal=   None    Shift=    0.000
 RMSDP=3.95D-09 MaxDP=4.63D-08              OVMax= 3.80D-08

 SCF Done:  E(RB3LYP) =  -75.5442755925     A.U. after    1 cycles
            NFock=  1  Conv=0.40D-08     -V/T= 1.9433
 KE= 8.008701270540D+01 PE=-2.148173128988D+02 EE= 4.253384763003D+01
 Leave Link  502 at Wed Mar 25 09:50:37 2015, MaxMem=   134217728 cpu:         0.2
 (Enter /opt/g09_D01_em64t/g09/l801.exe)
 DoSCS=F DFT=T ScalE2(SS,OS)=  1.000000  1.000000
 ExpMin= 1.61D-01 ExpMax= 5.48D+03 ExpMxC= 8.25D+02 IAcc=3 IRadAn=         5 AccDes= 0.00D+00
 HarFok:  IExCor=  205 AccDes= 0.00D+00 IRadAn=         5 IDoV=-2 UseB2=F ITyADJ=14
 ICtDFT= 12500011 ScaDFX=  1.000000  1.000000  1.000000  1.000000
 Largest valence mixing into a core orbital is  2.37D-05
 Largest core mixing into a valence orbital is  7.51D-06
 Range of M.O.s used for correlation:     2    25
 NBasis=    25 NAE=     5 NBE=     5 NFC=     1 NFV=     0
 NROrb=     24 NOA=     4 NOB=     4 NVA=    20 NVB=    20
 Leave Link  801 at Wed Mar 25 09:50:37 2015, MaxMem=   134217728 cpu:         0.2
 (Enter /opt/g09_D01_em64t/g09/l914.exe)
 RHF ground state
 MDV=   134217728 DFT=T DoStab=F Mixed=T DoRPA=T DoScal=F NonHer=T
 Keep R1, R2, and R3 ints in memory in canonical form, NReq=1948444.
 FoFCou: FMM=F IPFlag=           0 FMFlag=           0 FMFlg1=           0
         NFxFlg=           0 DoJE=F BraDBF=F KetDBF=F FulRan=T
         wScrn=  0.000000 ICntrl=     600 IOpCl=  0 I1Cent=           0 NGrid=           0
         NMat0=    1 NMatS0=    325 NMatT0=    0 NMatD0=    1 NMtDS0=    0 NMtDT0=    0
 Symmetry not used in FoFCou.
 Making orbital integer symmetry assigments:
     8 initial guesses have been made.
 Convergence on wavefunction:    0.000001000000000
 Davidson Disk Diagonalization:  ConvIn= 1.00D-06 SkipCon=T Conv= 1.00D-06.
 Max sub-space:   200 roots to seek:     8 dimension of matrix:          160
 Iteration     1 Dimension     8 NMult     0 NNew      8
 CISAX will form     8 AO SS matrices at one time.
 NMat=     8 NSing=     8 JSym2X= 0.
 Excitation Energies [eV] at current iteration:
 Root      1 :    11.479712584452260
 Root      2 :    13.140486546594120
 Root      3 :    14.439621505820330
 Root      4 :    16.201937915229860
 Root      5 :    22.959021632497430
 Root      6 :    26.346388500051420
 Root      7 :    27.935248882669150
 Root      8 :    34.665125070679280
 Iteration     2 Dimension    12 NMult     8 NNew      4
 CISAX will form     4 AO SS matrices at one time.
 NMat=     4 NSing=     4 JSym2X= 0.
 Root      1 not converged, maximum delta is    0.006864536387077
 Root      2 not converged, maximum delta is    0.013300279450195
 Excitation Energies [eV] at current iteration:
 Root      1 :    11.469650392894450   Change is   -0.010062191557811
 Root      2 :    13.124727796424300   Change is   -0.015758750169817
 Iteration     3 Dimension    16 NMult    12 NNew      4
 CISAX will form     4 AO SS matrices at one time.
 NMat=     4 NSing=     4 JSym2X= 0.
 Root      1 not converged, maximum delta is    0.000654769999223
 Root      2 not converged, maximum delta is    0.001048059777217
 Excitation Energies [eV] at current iteration:
 Root      1 :    11.469418625040370   Change is   -0.000231767854079
 Root      2 :    13.124186260558080   Change is   -0.000541535866224
 Iteration     4 Dimension    20 NMult    16 NNew      4
 CISAX will form     4 AO SS matrices at one time.
 NMat=     4 NSing=     4 JSym2X= 0.
 Root      1 not converged, maximum delta is    0.000092784491064
 Root      2 not converged, maximum delta is    0.000189161535045
 Excitation Energies [eV] at current iteration:
 Root      1 :    11.469416250054220   Change is   -0.000002374986154
 Root      2 :    13.124174854794580   Change is   -0.000011405763497
 Iteration     5 Dimension    24 NMult    20 NNew      4
 CISAX will form     4 AO SS matrices at one time.
 NMat=     4 NSing=     4 JSym2X= 0.
 Root      1 not converged, maximum delta is    0.000008046189893
 Root      2 not converged, maximum delta is    0.000030885151086
 Excitation Energies [eV] at current iteration:
 Root      1 :    11.469416227152780   Change is   -0.000000022901433
 Root      2 :    13.124174583452750   Change is   -0.000000271341827
 Iteration     6 Dimension    28 NMult    24 NNew      4
 CISAX will form     4 AO SS matrices at one time.
 NMat=     4 NSing=     4 JSym2X= 0.
 Root      1 has converged.
 Root      2 not converged, maximum delta is    0.000001964852813
 Excitation Energies [eV] at current iteration:
 Root      1 :    11.469416226740950   Change is   -0.000000000411832
 Root      2 :    13.124174578437940   Change is   -0.000000005014811
 Iteration     7 Dimension    30 NMult    28 NNew      2
 CISAX will form     2 AO SS matrices at one time.
 NMat=     2 NSing=     2 JSym2X= 0.
 Root      1 has converged.
 Root      2 has converged.
 Excitation Energies [eV] at current iteration:
 Root      1 :    11.469416226740940   Change is   -0.000000000000014
 Root      2 :    13.124174578327970   Change is   -0.000000000109973
 Convergence achieved on expansion vectors.
 ***********************************************************************
 Excited states from <AA,BB:AA,BB> singles matrix:
 ***********************************************************************
 
 1PDM for each excited state written to RWF  633
 Ground to excited state transition densities written to RWF  633
 Ground to excited state transition electric dipole moments (Au):
       state          X           Y           Z        Dip. S.      Osc.
         1         0.0000      0.0000      0.5019      0.2519      0.0708
         2         0.1868      0.2992      0.0000      0.1244      0.0400
 Ground to excited state transition velocity dipole moments (Au):
       state          X           Y           Z        Dip. S.      Osc.
         1         0.0000      0.0000     -0.2977      0.0886      0.1402
         2        -0.1325     -0.1965      0.0000      0.0562      0.0777
 Ground to excited state transition magnetic dipole moments (Au):
       state          X           Y           Z
         1         0.7475     -0.1913      0.0000
         2         0.0000      0.0000     -0.2082
 Ground to excited state transition velocity quadrupole moments (Au):
       state          XX          YY          ZZ          XY          XZ          YZ
         1         0.0000      0.0000      0.0000      0.0000     -0.0540      0.5062
         2         0.1338      0.8231      0.1608      0.1588      0.0000      0.0000
 <0|del|b> * <b|rxdel|0> + <0|del|b> * <b|delr+rdel|0>
 Rotatory Strengths (R) in cgs (10**-40 erg-esu-cm/Gauss)
       state          XX          YY          ZZ    R(velocity)    E-M Angle
         1         0.0000      0.0000      0.0000      0.0000       90.00
         2         0.0000      0.0000      0.0000      0.0000       90.00
 1/2[<0|r|b>*<b|rxdel|0> + (<0|rxdel|b>*<b|r|0>)*]
 Rotatory Strengths (R) in cgs (10**-40 erg-esu-cm/Gauss)
       state          XX          YY          ZZ     R(length)
         1         0.0000      0.0000      0.0000      0.0000
         2         0.0000      0.0000      0.0000      0.0000
  1/2[<0|del|b>*<b|r|0> + (<0|r|b>*<b|del|0>)*] (Au)
       state          X           Y           Z        Dip. S.   Osc.(frdel)
         1         0.0000      0.0000     -0.1494      0.1494      0.0996
         2        -0.0248     -0.0588      0.0000      0.0836      0.0557

 Excitation energies and oscillator strengths:
 
 Excited state symmetry could not be determined.
 Excited State   1:      Singlet-?Sym   11.4694 eV  108.10 nm  f=0.0708  <S**2>=0.000
       2 ->  6         0.00000
       2 ->  7         0.00000
       2 ->  8         0.00000
       2 ->  9         0.00366
       2 -> 10         0.00000
       2 -> 11         0.00000
       2 -> 12         0.00000
       2 -> 13         0.00000
       2 -> 14        -0.00010
       2 -> 15         0.00000
       2 -> 16        -0.00032
       2 -> 17         0.00000
       2 -> 18         0.00000
       2 -> 19         0.00000
       2 -> 20         0.00006
       2 -> 21         0.00098
       2 -> 22         0.00000
       2 -> 23         0.00000
       2 -> 24         0.00000
       2 -> 25         0.00000
       3 ->  6         0.00000
       3 ->  7         0.00000
       3 ->  8         0.00000
       3 ->  9         0.00017
       3 -> 10         0.00000
       3 -> 11         0.00000
       3 -> 12         0.00000
       3 -> 13         0.00000
       3 -> 14        -0.00158
       3 -> 15         0.00000
       3 -> 16        -0.00007
       3 -> 17         0.00000
       3 -> 18         0.00000
       3 -> 19         0.00000
       3 -> 20        -0.00009
       3 -> 21        -0.00002
       3 -> 22         0.00000
       3 -> 23         0.00000
       3 -> 24         0.00000
       3 -> 25         0.00000
       4 ->  6         0.00000
       4 ->  7         0.00000
       4 ->  8         0.00000
       4 ->  9        -0.00412
       4 -> 10         0.00000
       4 -> 11         0.00000
       4 -> 12         0.00000
       4 -> 13         0.00000
       4 -> 14         0.00007
       4 -> 15         0.00000
       4 -> 16        -0.00150
       4 -> 17         0.00000
       4 -> 18         0.00000
       4 -> 19         0.00000
       4 -> 20         0.00002
       4 -> 21        -0.00037
       4 -> 22         0.00000
       4 -> 23         0.00000
       4 -> 24         0.00000
       4 -> 25         0.00000
       5 ->  6         0.70709
       5 ->  7         0.00264
       5 ->  8        -0.00845
       5 ->  9         0.00000
       5 -> 10         0.00158
       5 -> 11        -0.00429
       5 -> 12        -0.00059
       5 -> 13        -0.00100
       5 -> 14         0.00000
       5 -> 15        -0.00056
       5 -> 16         0.00000
       5 -> 17         0.00113
       5 -> 18        -0.00015
       5 -> 19         0.00005
       5 -> 20         0.00000
       5 -> 21         0.00000
       5 -> 22        -0.00083
       5 -> 23        -0.00031
       5 -> 24         0.00003
       5 -> 25        -0.00040
       2 <-  6         0.00000
       2 <-  7         0.00000
       2 <-  8         0.00000
       2 <-  9         0.00206
       2 <- 10         0.00000
       2 <- 11         0.00000
       2 <- 12         0.00000
       2 <- 13         0.00000
       2 <- 14        -0.00005
       2 <- 15         0.00000
       2 <- 16        -0.00005
       2 <- 17         0.00000
       2 <- 18         0.00000
       2 <- 19         0.00000
       2 <- 20         0.00003
       2 <- 21         0.00036
       2 <- 22         0.00000
       2 <- 23         0.00000
       2 <- 24         0.00000
       2 <- 25         0.00000
       3 <-  6         0.00000
       3 <-  7         0.00000
       3 <-  8         0.00000
       3 <-  9        -0.00023
       3 <- 10         0.00000
       3 <- 11         0.00000
       3 <- 12         0.00000
       3 <- 13         0.00000
       3 <- 14        -0.00081
       3 <- 15         0.00000
       3 <- 16        -0.00005
       3 <- 17         0.00000
       3 <- 18         0.00000
       3 <- 19         0.00000
       3 <- 20        -0.00009
       3 <- 21        -0.00007
       3 <- 22         0.00000
       3 <- 23         0.00000
       3 <- 24         0.00000
       3 <- 25         0.00000
       4 <-  6         0.00000
       4 <-  7         0.00000
       4 <-  8         0.00000
       4 <-  9        -0.00313
       4 <- 10         0.00000
       4 <- 11         0.00000
       4 <- 12         0.00000
       4 <- 13         0.00000
       4 <- 14         0.00007
       4 <- 15         0.00000
       4 <- 16        -0.00091
       4 <- 17         0.00000
       4 <- 18         0.00000
       4 <- 19         0.00000
       4 <- 20         0.00001
       4 <- 21        -0.00028
       4 <- 22         0.00000
       4 <- 23         0.00000
       4 <- 24         0.00000
       4 <- 25         0.00000
       5 <-  6        -0.00794
       5 <-  7         0.00063
       5 <-  8        -0.00106
       5 <-  9         0.00000
       5 <- 10        -0.00012
       5 <- 11         0.00446
       5 <- 12        -0.00030
       5 <- 13         0.00220
       5 <- 14         0.00000
       5 <- 15        -0.00076
       5 <- 16         0.00000
       5 <- 17         0.00085
       5 <- 18        -0.00002
       5 <- 19        -0.00003
       5 <- 20         0.00000
       5 <- 21         0.00000
       5 <- 22        -0.00110
       5 <- 23        -0.00115
       5 <- 24        -0.00001
       5 <- 25        -0.00053
 This state for optimization and/or second-order correction.
 Total Energy, E(TD-HF/TD-KS) =  -75.1227822834    
 Copying the excited state density for this state as the 1-particle RhoCI density.
 
 Excited state symmetry could not be determined.
 Excited State   2:      Singlet-?Sym   13.1242 eV   94.47 nm  f=0.0400  <S**2>=0.000
       2 ->  6         0.00055
       2 ->  7         0.00040
       2 ->  8         0.00279
       2 ->  9         0.00000
       2 -> 10        -0.00024
       2 -> 11         0.00069
       2 -> 12        -0.00049
       2 -> 13         0.00115
       2 -> 14         0.00000
       2 -> 15         0.00042
       2 -> 16         0.00000
       2 -> 17        -0.00063
       2 -> 18         0.00005
       2 -> 19        -0.00001
       2 -> 20         0.00000
       2 -> 21         0.00000
       2 -> 22         0.00022
       2 -> 23        -0.00067
       2 -> 24         0.00005
       2 -> 25         0.00002
       3 ->  6        -0.00006
       3 ->  7        -0.00273
       3 ->  8         0.00015
       3 ->  9         0.00000
       3 -> 10        -0.00213
       3 -> 11        -0.00011
       3 -> 12        -0.00141
       3 -> 13        -0.00056
       3 -> 14         0.00000
       3 -> 15         0.00004
       3 -> 16         0.00000
       3 -> 17         0.00019
       3 -> 18         0.00067
       3 -> 19        -0.00096
       3 -> 20         0.00000
       3 -> 21         0.00000
       3 -> 22         0.00010
       3 -> 23         0.00004
       3 -> 24         0.00084
       3 -> 25         0.00004
       4 ->  6         0.70702
       4 ->  7         0.00025
       4 ->  8        -0.01026
       4 ->  9         0.00000
       4 -> 10         0.00140
       4 -> 11        -0.00573
       4 -> 12        -0.00044
       4 -> 13        -0.00189
       4 -> 14         0.00000
       4 -> 15         0.00296
       4 -> 16         0.00000
       4 -> 17         0.00061
       4 -> 18        -0.00005
       4 -> 19         0.00012
       4 -> 20         0.00000
       4 -> 21         0.00000
       4 -> 22        -0.00071
       4 -> 23         0.00025
       4 -> 24         0.00006
       4 -> 25         0.00015
       5 ->  6         0.00000
       5 ->  7         0.00000
       5 ->  8         0.00000
       5 ->  9         0.00094
       5 -> 10         0.00000
       5 -> 11         0.00000
       5 -> 12         0.00000
       5 -> 13         0.00000
       5 -> 14        -0.00006
       5 -> 15         0.00000
       5 -> 16        -0.00214
       5 -> 17         0.00000
       5 -> 18         0.00000
       5 -> 19         0.00000
       5 -> 20         0.00010
       5 -> 21        -0.00006
       5 -> 22         0.00000
       5 -> 23         0.00000
       5 -> 24         0.00000
       5 -> 25         0.00000
       2 <-  6        -0.00146
       2 <-  7         0.00021
       2 <-  8         0.00132
       2 <-  9         0.00000
       2 <- 10        -0.00012
       2 <- 11         0.00119
       2 <- 12        -0.00031
       2 <- 13         0.00077
       2 <- 14         0.00000
       2 <- 15         0.00014
       2 <- 16         0.00000
       2 <- 17        -0.00020
       2 <- 18         0.00003
       2 <- 19        -0.00002
       2 <- 20         0.00000
       2 <- 21         0.00000
       2 <- 22        -0.00026
       2 <- 23        -0.00043
       2 <- 24         0.00005
       2 <- 25         0.00018
       3 <-  6         0.00005
       3 <-  7        -0.00039
       3 <-  8        -0.00016
       3 <-  9         0.00000
       3 <- 10        -0.00070
       3 <- 11         0.00000
       3 <- 12        -0.00077
       3 <- 13        -0.00034
       3 <- 14         0.00000
       3 <- 15         0.00004
       3 <- 16         0.00000
       3 <- 17         0.00019
       3 <- 18         0.00046
       3 <- 19        -0.00072
       3 <- 20         0.00000
       3 <- 21         0.00000
       3 <- 22         0.00002
       3 <- 23         0.00004
       3 <- 24         0.00069
       3 <- 25         0.00005
       4 <-  6        -0.00450
       4 <-  7         0.00019
       4 <-  8        -0.00350
       4 <-  9         0.00000
       4 <- 10        -0.00013
       4 <- 11         0.00323
       4 <- 12        -0.00016
       4 <- 13         0.00144
       4 <- 14         0.00000
       4 <- 15         0.00138
       4 <- 16         0.00000
       4 <- 17         0.00044
       4 <- 18         0.00003
       4 <- 19         0.00006
       4 <- 20         0.00000
       4 <- 21         0.00000
       4 <- 22        -0.00093
       4 <- 23        -0.00076
       4 <- 24         0.00001
       4 <- 25        -0.00007
       5 <-  6         0.00000
       5 <-  7         0.00000
       5 <-  8         0.00000
       5 <-  9        -0.00070
       5 <- 10         0.00000
       5 <- 11         0.00000
       5 <- 12         0.00000
       5 <- 13         0.00000
       5 <- 14        -0.00003
       5 <- 15         0.00000
       5 <- 16        -0.00129
       5 <- 17         0.00000
       5 <- 18         0.00000
       5 <- 19         0.00000
       5 <- 20         0.00007
       5 <- 21        -0.00003
       5 <- 22         0.00000
       5 <- 23         0.00000
       5 <- 24         0.00000
       5 <- 25         0.00000
 SavETr:  write IOETrn=   770 NScale= 10 NData=  16 NLR=1 NState=    2 LETran=      46.
 The selected state is a singlet
 CISAX will form     1 AO SS matrices at one time.
 NMat=     1 NSing=     1 JSym2X= 0.
 CISAX will form     1 AO SS matrices at one time.
 NMat=     1 NSing=     1 JSym2X= 0.
 Leave Link  914 at Wed Mar 25 09:50:38 2015, MaxMem=   134217728 cpu:         2.5
 (Enter /opt/g09_D01_em64t/g09/l1002.exe)
 Minotr:  Closed shell wavefunction.
          Computing CIS/TD-HF/TD-KS derivatives.
          Using Z-Vector for PSCF gradient.
          Skipping F1 and S1 gradient terms here.
          IDoAtm=111222
          Frozen-core window.
          Direct CPHF calculation.
          Differentiating once with respect to electric field.
                with respect to dipole field.
          Differentiating once with respect to nuclear coordinates.
          Requested convergence is 1.0D-10 RMS, and 1.0D-09 maximum.
          NewPWx=F KeepS1=T KeepF1=T KeepIn=F MapXYZ=T SortEE=T KeepMc=T.
          MDV=     134217640 using IRadAn=       0.
 Using stored XC quadrature information.
 Keep R1 ints in memory in canonical form, NReq=913344.
 FoFCou: FMM=F IPFlag=           0 FMFlag=           0 FMFlg1=           0
         NFxFlg=           0 DoJE=F BraDBF=F KetDBF=F FulRan=T
         wScrn=  0.000000 ICntrl=     600 IOpCl=  0 I1Cent=           0 NGrid=           0
         NMat0=    1 NMatS0=    325 NMatT0=    0 NMatD0=    1 NMtDS0=    0 NMtDT0=    0
 Symmetry not used in FoFCou.
          Solving linear equations separately, MaxMat=       0.
          There are     1 degrees of freedom in the 1st order CPHF.  IDoFFX=0 NUNeed=     1.
 LinEq1:  Iter=  0 NonCon=     1 RMS=7.96D-02 Max=4.81D-01 NDo=     1
 AX will form     1 AO Fock derivatives at one time.
 LinEq1:  Iter=  1 NonCon=     1 RMS=5.79D-03 Max=1.94D-02 NDo=     1
 LinEq1:  Iter=  2 NonCon=     1 RMS=5.64D-04 Max=2.59D-03 NDo=     1
 LinEq1:  Iter=  3 NonCon=     1 RMS=7.78D-05 Max=5.88D-04 NDo=     1
 LinEq1:  Iter=  4 NonCon=     1 RMS=4.54D-06 Max=1.95D-05 NDo=     1
 LinEq1:  Iter=  5 NonCon=     1 RMS=4.59D-07 Max=2.06D-06 NDo=     1
 LinEq1:  Iter=  6 NonCon=     1 RMS=5.88D-08 Max=2.25D-07 NDo=     1
 LinEq1:  Iter=  7 NonCon=     1 RMS=2.89D-09 Max=1.59D-08 NDo=     1
 LinEq1:  Iter=  8 NonCon=     1 RMS=1.19D-10 Max=5.93D-10 NDo=     1
 LinEq1:  Iter=  9 NonCon=     0 RMS=3.95D-12 Max=1.35D-11 NDo=     1
 Linear equations converged to 1.000D-10 1.000D-09 after     9 iterations.
 End of Minotr F.D. properties file   721 does not exist.
 End of Minotr F.D. properties file   722 does not exist.
 End of Minotr F.D. properties file   788 does not exist.
 Leave Link 1002 at Wed Mar 25 09:50:40 2015, MaxMem=   134217728 cpu:         1.8
 (Enter /opt/g09_D01_em64t/g09/l601.exe)
 Copying SCF densities to generalized density rwf, IOpCl= 0 IROHF=0.

 **********************************************************************

            Population analysis using the SCF density.

 **********************************************************************

 Alpha  occ. eigenvalues --  -19.10594  -1.29576  -0.76787  -0.40529  -0.34470
 Alpha virt. eigenvalues --    0.13741   0.25188   0.77422   0.82825   0.96236
 Alpha virt. eigenvalues --    1.23339   1.44249   1.46664   1.67264   1.70572
 Alpha virt. eigenvalues --    1.73788   2.99324   3.08125   3.22094   3.26278
 Alpha virt. eigenvalues --    3.39853   3.70320   3.83408   6.39163   9.44014
     Molecular Orbital Coefficients:
                           1         2         3         4         5
                           O         O         O         O         O
     Eigenvalues --   -19.10594  -1.29576  -0.76787  -0.40529  -0.34470
   1 1   O  1S          0.99228  -0.24554  -0.00104   0.08299   0.00000
   2        2S          0.03346   0.36182  -0.00168  -0.19677   0.00000
   3        2PX         0.00410   0.13403   0.49533   0.36338   0.00000
   4        2PY         0.00574   0.19003  -0.35772   0.49516   0.00000
   5        2PZ         0.00000   0.00000   0.00000   0.00000   0.66117
   6        3S          0.02201   0.11172  -0.00451  -0.37904   0.00000
[...]
   6        3S          0.31331
   7        3PX         0.00000   0.08737
   8        3PY         0.00000   0.00000   0.17370
   9        3PZ         0.00000   0.00000   0.00000   0.41618
  10        4XX         0.00124   0.00000   0.00000   0.00000   0.00443
  11        4YY        -0.01063   0.00000   0.00000   0.00000  -0.00073
  12        4ZZ         0.00777   0.00000   0.00000   0.00000   0.00067
  13        4XY         0.00000   0.00000   0.00000   0.00000   0.00000
  14        4XZ         0.00000   0.00000   0.00000   0.00000   0.00000
  15        4YZ         0.00000   0.00000   0.00000   0.00000   0.00000
  16 2   H  1S         -0.01003   0.03564   0.00000   0.00000   0.00063
  17        2S          0.00900   0.00409   0.00000   0.00000   0.00520
  18        3PX         0.00175  -0.00044   0.00000   0.00000  -0.00008
  19        3PY         0.00000   0.00000  -0.00109   0.00000   0.00000
  20        3PZ         0.00000   0.00000   0.00000   0.00827   0.00000
  21 3   H  1S          0.00024  -0.00038   0.03441   0.00000  -0.01864
  22        2S          0.00330   0.00137   0.00482   0.00000  -0.00675
  23        3PX        -0.00005  -0.00143  -0.00005   0.00000  -0.00004
  24        3PY         0.00212   0.00023   0.00038   0.00000  -0.00089
  25        3PZ         0.00000   0.00000   0.00000   0.00932   0.00000
                          11        12        13        14        15
  11        4YY         0.00264
  12        4ZZ        -0.00023   0.00199
  13        4XY         0.00000   0.00000   0.01225
  14        4XZ         0.00000   0.00000   0.00000   0.00138
  15        4YZ         0.00000   0.00000   0.00000   0.00000   0.00209
  16 2   H  1S         -0.00600  -0.00669   0.00000   0.00000   0.00000
  17        2S         -0.00523  -0.00033   0.00000   0.00000   0.00000
  18        3PX        -0.00049  -0.00024   0.00000   0.00000   0.00000
  19        3PY         0.00000   0.00000  -0.00237   0.00000   0.00000
  20        3PZ         0.00000   0.00000   0.00000   0.00065   0.00000
  21 3   H  1S          0.01548  -0.00704  -0.00612   0.00000   0.00000
  22        2S          0.00525  -0.00105  -0.00002   0.00000   0.00000
  23        3PX         0.00014   0.00009  -0.00152   0.00000   0.00000
  24        3PY        -0.00019  -0.00029   0.00012   0.00000   0.00000
  25        3PZ         0.00000   0.00000   0.00000  -0.00024   0.00085
                          16        17        18        19        20
  16 2   H  1S          0.44106
  17        2S          0.08172   0.05336
  18        3PX         0.00000   0.00000   0.00331
  19        3PY         0.00000   0.00000   0.00000   0.00221
  20        3PZ         0.00000   0.00000   0.00000   0.00000   0.00077
  21 3   H  1S          0.00059  -0.04206  -0.00116  -0.00602   0.00000
  22        2S         -0.03670  -0.03824  -0.00097  -0.00037   0.00000
  23        3PX        -0.00793  -0.00080  -0.00040   0.00038   0.00000
  24        3PY         0.00120  -0.00045   0.00014   0.00006   0.00000
  25        3PZ         0.00000   0.00000   0.00000   0.00000   0.00022
                          21        22        23        24        25
  21 3   H  1S          0.44448
  22        2S          0.08237   0.04885
  23        3PX         0.00000   0.00000   0.00128
  24        3PY         0.00000   0.00000   0.00000   0.00289
  25        3PZ         0.00000   0.00000   0.00000   0.00000   0.00098
     Gross orbital populations:
                           1
   1 1   O  1S          1.99391
   2        2S          0.76419
   3        2PX         1.17465
   4        2PY         1.18798
   5        2PZ         1.20738
   6        3S          0.48241
   7        3PX         0.22398
   8        3PY         0.36875
   9        3PZ         0.73630
  10        4XX        -0.02473
  11        4YY        -0.00513
  12        4ZZ        -0.00976
  13        4XY         0.00234
  14        4XZ         0.00179
  15        4YZ         0.00294
  16 2   H  1S          0.83435
  17        2S          0.09435
  18        3PX         0.00930
  19        3PY        -0.01897
  20        3PZ         0.02427
  21 3   H  1S          0.84131
  22        2S          0.08986
  23        3PX        -0.02419
  24        3PY         0.01540
  25        3PZ         0.02732
          Condensed to atoms (all electrons):
               1          2          3
     1  O    7.276390   0.411639   0.418967
     2  H    0.411639   0.664150  -0.132493
     3  H    0.418967  -0.132493   0.663237
 Mulliken charges:
               1
     1  O   -0.106995
     2  H    0.056704
     3  H    0.050290
     4  O   -0.834000
     5  H    0.417000
     6  H    0.417000
 Sum of Mulliken charges =   0.00000
 Mulliken charges with hydrogens summed into heavy atoms:
               1
     1  O    0.000000
     4  O    0.000000
 Electronic spatial extent (au):  <R**2>=             61.0733
 Charge=              0.0000 electrons
 Dipole moment (field-independent basis, Debye):
    X=              1.5028    Y=              2.1947    Z=              0.0000  Tot=              2.6600
 Quadrupole moment (field-independent basis, Debye-Ang):
   XX=             -6.1925   YY=             -7.1301   ZZ=             -6.0350
   XY=             -2.7732   XZ=              0.0000   YZ=              0.0000
 Traceless Quadrupole moment (field-independent basis, Debye-Ang):
   XX=              0.2600   YY=             -0.6776   ZZ=              0.4175
   XY=             -2.7732   XZ=              0.0000   YZ=              0.0000
 Octapole moment (field-independent basis, Debye-Ang**2):
  XXX=              4.3682  YYY=             23.5235  ZZZ=              0.0000  XYY=              2.3324
  XXY=              7.8819  XXZ=              0.0000  XZZ=              1.1971  YZZ=              7.0610
  YYZ=              0.0000  XYZ=              0.0000
 Hexadecapole moment (field-independent basis, Debye-Ang**3):
 XXXX=             -5.5674 YYYY=            -53.2650 ZZZZ=             -3.9647 XXXY=             -6.2647
 XXXZ=              0.0000 YYYX=             -8.0107 YYYZ=              0.0000 ZZZX=              0.0000
 ZZZY=              0.0000 XXYY=             -7.2366 XXZZ=             -1.4659 YYZZ=             -9.5157
 XXYZ=              0.0000 YYXZ=              0.0000 ZZXY=             -1.4218
 N-N= 1.665217697085D+01 E-N=-2.148173119150D+02  KE= 8.008701270540D+01
 Orbital energies and kinetic energies (alpha):
                                 1                 2
   1         O               -19.105938         28.967052
   2         O                -1.295757          3.424131
   3         O                -0.767872          2.723286
   4         O                -0.405290          2.501462
   5         O                -0.344697          2.427575
   6         V                 0.137412          0.837892
   7         V                 0.251883          0.701189
   8         V                 0.774222          2.461642
   9         V                 0.828253          2.908617
  10         V                 0.962362          1.945916
  11         V                 1.233388          2.364350
  12         V                 1.442493          3.480677
  13         V                 1.466643          3.044382
  14         V                 1.672636          2.820092
  15         V                 1.705719          2.861777
  16         V                 1.737885          2.825904
  17         V                 2.993243          4.476190
  18         V                 3.081246          4.451556
  19         V                 3.220940          4.206246
  20         V                 3.262783          4.175222
  21         V                 3.398530          5.912913
  22         V                 3.703204          7.684798
  23         V                 3.834081          8.666400
  24         V                 6.391635         12.683699
  25         V                 9.440144         17.086796
 Total kinetic energy from orbitals= 8.008701270540D+01
 No NMR shielding tensors so no spin-rotation constants.
 Leave Link  601 at Wed Mar 25 09:50:40 2015, MaxMem=   134217728 cpu:         0.2
 (Enter /opt/g09_D01_em64t/g09/l701.exe)
 Compute integral first derivatives.
 ... and contract with generalized density number  6.
 Leave Link  701 at Wed Mar 25 09:50:40 2015, MaxMem=   134217728 cpu:         0.2
 (Enter /opt/g09_D01_em64t/g09/l702.exe)
 L702 exits ... SP integral derivatives will be done elsewhere.
 Leave Link  702 at Wed Mar 25 09:50:40 2015, MaxMem=   134217728 cpu:         0.0
 (Enter /opt/g09_D01_em64t/g09/l703.exe)
 Compute integral first derivatives, UseDBF=F ICtDFT=           0.
 Integral derivatives from FoFJK, PRISM(SPDF).
 Calling FoFJK, ICntrl=  10005127 FMM=F ISym2X=0 I1Cent= 0 IOpClX= 0 NMat=1 NMatS=1 NMatT=0.
 FoFJK:  IHMeth= 1 ICntrl=10005127 DoSepK=F KAlg= 0 I1Cent=   0 FoldK=F
 IRaf=         0 NMat=   1 IRICut=       1 DoRegI=T DoRafI=F ISym2E= 0.
 FoFCou: FMM=F IPFlag=           0 FMFlag=      100000 FMFlg1=         800
         NFxFlg=           0 DoJE=F BraDBF=F KetDBF=F FulRan=T
         wScrn=  0.000000 ICntrl=10005127 IOpCl=  0 I1Cent=           0 NGrid=           0
         NMat0=    1 NMatS0=      1 NMatT0=    0 NMatD0=    1 NMtDS0=    0 NMtDT0=    0
 Symmetry not used in FoFCou.
 Leave Link  703 at Wed Mar 25 09:50:41 2015, MaxMem=   134217728 cpu:         0.6
 (Enter /opt/g09_D01_em64t/g09/l716.exe)
 Dipole        =-3.72934056D-01 1.27135007D-01-2.13344329D-11
 -------------------------------------------------------------------
 Center     Atomic                   Forces (Hartrees/Bohr)
 Number     Number              X              Y              Z
 -------------------------------------------------------------------
      1        8          -2.096463665   -2.961805252    0.000000000
      2        1           3.179796024   -0.030329958    0.000000000
      3        1          -1.092988088    2.968139863    0.000000000
      4        8           0.028665686   -0.050407714    0.000000000
      5        1          -0.019294193    0.068254379    0.000000000
      6        1           0.000284236    0.006148681    0.000000000
 -------------------------------------------------------------------
 Cartesian Forces:  Max     3.179796024 RMS     1.359991454
 Z-matrix is all fixed cartesians, so copy forces.
 Force constants in Cartesian coordinates: 
                1             2             3             4             5 
      1  0.947162D+01
      2 -0.201227D+01  0.778277D+01
      3  0.000000D+00  0.000000D+00  0.333980D+02
      4 -0.777287D+01  0.408697D-01  0.000000D+00  0.799615D+01
      5 -0.286335D+00 -0.552830D+00  0.000000D+00 -0.760326D-01  0.617924D+00
      6  0.000000D+00  0.000000D+00  0.132342D+01  0.000000D+00  0.000000D+00
      7 -0.178869D+01  0.188500D+01  0.000000D+00 -0.271551D+00  0.253200D+00
      8  0.209711D+01 -0.711649D+01  0.000000D+00  0.405094D-02 -0.140990D+00
      9  0.000000D+00  0.000000D+00 -0.536802D+02  0.000000D+00  0.000000D+00
     10 -0.299802D-01  0.275226D-01  0.000000D+00  0.177586D-01  0.659834D-01
     11  0.193874D+00 -0.104560D+00  0.000000D+00  0.180518D-01  0.574158D-01
     12  0.000000D+00  0.000000D+00 -0.132143D+01  0.000000D+00  0.000000D+00
     13  0.814147D-01  0.288305D-01  0.000000D+00  0.305197D-01  0.431843D-01
     14 -0.601603D-02 -0.195358D-01  0.000000D+00  0.130602D-01  0.184797D-01
     15  0.000000D+00  0.000000D+00  0.200035D+02  0.000000D+00  0.000000D+00
     16  0.385121D-01  0.300449D-01  0.000000D+00  0.000000D+00  0.000000D+00
     17  0.136378D-01  0.106395D-01  0.000000D+00  0.000000D+00  0.000000D+00
     18  0.000000D+00  0.000000D+00  0.276795D+00  0.000000D+00  0.000000D+00
                6             7             8             9            10 
      6  0.542193D+00
      7  0.000000D+00  0.269820D+01
      8  0.000000D+00 -0.201237D+01  0.774721D+01
      9 -0.295950D+01  0.000000D+00  0.000000D+00  0.882504D+02
     10  0.000000D+00 -0.350909D+00 -0.747163D-01  0.000000D+00  0.966579D+01
     11  0.000000D+00  0.468462D-01 -0.181139D+00  0.000000D+00 -0.211424D+01
     12  0.377737D+00  0.000000D+00  0.000000D+00  0.582196D+00  0.000000D+00
     13  0.000000D+00 -0.364941D+00 -0.752879D-01  0.000000D+00 -0.779787D+01
     14  0.000000D+00 -0.232637D+00 -0.344124D+00  0.000000D+00 -0.165067D+00
     15  0.744376D+00  0.000000D+00  0.000000D+00 -0.325687D+02  0.000000D+00
     16  0.000000D+00  0.778928D-01  0.612154D-01  0.000000D+00 -0.150478D+01
     17  0.000000D+00  0.599601D-01  0.355324D-01  0.000000D+00  0.226052D+01
     18 -0.282229D-01  0.000000D+00  0.000000D+00  0.375847D+00  0.000000D+00
               11            12            13            14            15 
     11  0.813757D+01
     12  0.000000D+00  0.237894D+01
     13 -0.709132D-01  0.000000D+00  0.828300D+01
     14 -0.833055D+00  0.000000D+00  0.515336D-01  0.125028D+01
     15  0.000000D+00 -0.582566D+00  0.000000D+00  0.000000D+00  0.129483D+02
     16  0.192638D+01  0.000000D+00 -0.232114D+00  0.339126D+00  0.000000D+00
     17 -0.707623D+01  0.000000D+00  0.226526D-01 -0.720447D-01  0.000000D+00
     18  0.000000D+00 -0.143488D+01  0.000000D+00  0.000000D+00 -0.544846D+00
               16            17            18 
     16  0.162049D+01
     17 -0.235677D+01  0.710211D+01
     18  0.000000D+00  0.000000D+00  0.135531D+01
 Leave Link  716 at Wed Mar 25 09:50:41 2015, MaxMem=   134217728 cpu:         0.1
 (Enter /opt/g09_D01_em64t/g09/l103.exe)

 GradGradGradGradGradGradGradGradGradGradGradGradGradGradGradGradGradGrad
 Berny optimization.
 Search for a local minimum.
 Step number   1 out of a maximum of    2
 All quantities printed in internal units (Hartrees-Bohrs-Radians)
 Second derivative matrix not updated -- first step.
 The second derivative matrix:
                          X1        Y1        Z1        X2        Y2
           X1           9.47162
           Y1          -2.01227   7.78277
           Z1           0.00000   0.00000  33.39797
           X2          -7.77287   0.04087   0.00000   7.99615
           Y2          -0.28634  -0.55283   0.00000  -0.07603   0.61792
           Z2           0.00000   0.00000   1.32342   0.00000   0.00000
           X3          -1.78869   1.88500   0.00000  -0.27155   0.25320
           Y3           2.09711  -7.11649   0.00000   0.00405  -0.14099
           Z3           0.00000   0.00000 -53.68025   0.00000   0.00000
           X4          -0.02998   0.02752   0.00000   0.01776   0.06598
           Y4           0.19387  -0.10456   0.00000   0.01805   0.05742
           Z4           0.00000   0.00000  -1.32143   0.00000   0.00000
           X5           0.08141   0.02883   0.00000   0.03052   0.04318
           Y5          -0.00602  -0.01954   0.00000   0.01306   0.01848
           Z5           0.00000   0.00000  20.00349   0.00000   0.00000
           X6           0.03851   0.03004   0.00000   0.00000   0.00000
           Y6           0.01364   0.01064   0.00000   0.00000   0.00000
           Z6           0.00000   0.00000   0.27680   0.00000   0.00000
                          Z2        X3        Y3        Z3        X4
           Z2           0.54219
           X3           0.00000   2.69820
           Y3           0.00000  -2.01237   7.74721
           Z3          -2.95950   0.00000   0.00000  88.25043
           X4           0.00000  -0.35091  -0.07472   0.00000   9.66579
           Y4           0.00000   0.04685  -0.18114   0.00000  -2.11424
           Z4           0.37774   0.00000   0.00000   0.58220   0.00000
           X5           0.00000  -0.36494  -0.07529   0.00000  -7.79787
           Y5           0.00000  -0.23264  -0.34412   0.00000  -0.16507
           Z5           0.74438   0.00000   0.00000 -32.56872   0.00000
           X6           0.00000   0.07789   0.06122   0.00000  -1.50478
           Y6           0.00000   0.05996   0.03553   0.00000   2.26052
           Z6          -0.02822   0.00000   0.00000   0.37585   0.00000
                          Y4        Z4        X5        Y5        Z5
           Y4           8.13757
           Z4           0.00000   2.37894
           X5          -0.07091   0.00000   8.28300
           Y5          -0.83306   0.00000   0.05153   1.25028
           Z5           0.00000  -0.58257   0.00000   0.00000  12.94827
           X6           1.92638   0.00000  -0.23211   0.33913   0.00000
           Y6          -7.07623   0.00000   0.02265  -0.07204   0.00000
           Z6           0.00000  -1.43488   0.00000   0.00000  -0.54485
                          X6        Y6        Z6
           X6           1.62049
           Y6          -2.35677   7.10211
           Z6           0.00000   0.00000   1.35531
 ITU=  0
     Eigenvalues ---    0.01443   0.01503   0.19446   0.79305   1.13668
     Eigenvalues ---    2.15076   2.29377   3.39113   8.45900  13.89025
     Eigenvalues ---   18.70832 100.39071
 Quadratic step=8.643D-01 exceeds max=3.000D-01 adjusted using Lamda=-2.249D+00.
 Angle between NR and scaled steps=  57.77 degrees.
 Angle between quadratic step and forces=  57.09 degrees.
 Linear search not attempted -- first point.
 TrRot=  0.022265 -0.058877  0.000000 -0.001354  0.000000 -0.001354
 Variable       Old X    -DE/DX   Delta X   Delta X   Delta X     New X
                                 (Linear)    (Quad)   (Total)
    X1       -0.36871  -2.09646   0.00000   0.00000   0.01633  -0.35238
    Y1       -2.19424  -2.96181   0.00000   0.00000  -0.05787  -2.25212
    Z1        0.00000   0.00000   0.00000   0.00000   0.00000   0.00000
    X2        0.59129   3.17980   0.00000   0.00000   0.01632   0.60762
    Y2       -2.19424  -0.03033   0.00000   0.00000  -0.06047  -2.25471
    Z2        0.00000   0.00000   0.00000   0.00000   0.00000   0.00000
    X3       -0.68916  -1.09299   0.00000  -0.10696  -0.08743  -0.77659
    Y3       -1.28931   2.96814   0.00000   0.27698   0.22026  -1.06905
    Z3        0.00000   0.00000   0.00000   0.00000   0.00000   0.00000
    X4       -2.34712   0.02867   0.00000  -0.00306   0.02017  -2.32696
    Y4        0.34173  -0.05041   0.00000   0.00879  -0.04372   0.29800
    Z4        0.00000   0.00000   0.00000   0.00000   0.00000   0.00000
    X5       -1.38712  -0.01929   0.00000  -0.00616   0.01715  -1.36998
    Y5        0.34173   0.06825   0.00000   0.04259  -0.01252   0.32921
    Z5        0.00000   0.00000   0.00000   0.00000   0.00000   0.00000
    X6       -2.66758   0.00028   0.00000  -0.00819   0.01747  -2.65010
    Y6        1.24666   0.00615   0.00000   0.00596  -0.04568   1.20099
    Z6        0.00000   0.00000   0.00000   0.00000   0.00000   0.00000
         Item               Value     Threshold  Converged?
 Maximum Force            3.179796     0.000450     NO 
 RMS     Force            1.359991     0.000300     NO 
 Maximum Displacement     0.220259     0.001800     NO 
 RMS     Displacement     0.061850     0.001200     NO 
 Predicted change in Energy=-5.721842D-01
 GradGradGradGradGradGradGradGradGradGradGradGradGradGradGradGradGradGrad

 Leave Link  103 at Wed Mar 25 09:50:41 2015, MaxMem=   134217728 cpu:         0.1
 (Enter /opt/g09_D01_em64t/g09/l9999.exe)

 Test job not archived.
 1\1\GINC-EAM\Force\RB3LYP TD-FC\6-31G(d,p)\H4O2\DULIKAI\25-Mar-2015\0\
 \#P force B3LYP/6-31G(D,P) TD(SINGLET,nstates=2,root=1) IOp(2/15=1,5/3
 2=2,5/38=1) geom=AllCheck Guess=Read iop(9/40=20) pop=full\\ch2nh2 Poi
 nt 2 -- high level on model system.\\0,1\O,-0.1951103,-1.16114422,0.\H
 ,0.31289982,-1.16114422,0.\H,-0.36468756,-0.6822728,0.\O,-1.24204361,0
 .18083393,0.\H,-0.73403349,0.18083393,0.\H,-1.41162088,0.65970535,0.\\
 Version=EM64L-G09RevD.01\HF=-75.5442756\RMSD=3.953e-09\RMSF=1.360e+00\
 Dipole=-0.3729341,0.127135,0.\PG=CS [SG(H4O2)]\\@


 WHEN YOU'VE SEEN ONE NUCLEAR WAR YOU'VE SEEN THEM ALL.
 Job cpu time:       0 days  0 hours  0 minutes  7.1 seconds.
 File lengths (MBytes):  RWF=      5 Int=      0 D2E=      0 Chk=      3 Scr=      1
 Normal termination of Gaussian 09 at Wed Mar 25 09:50:41 2015.
