 Entering Gaussian System, Link 0=g09
 Input=qm.gjf
 Output=qm.log
 Initial command:
 /opt/g09_D01_em64t/g09/l1.exe "/tmp/Gau-21943.inp" -scrdir="/tmp/"
 Entering Link 1 = /opt/g09_D01_em64t/g09/l1.exe PID=     21944.
  
 Copyright (c) 1988,1990,1992,1993,1995,1998,2003,2009,2013,
            Gaussian, Inc.  All Rights Reserved.
  
 This is part of the Gaussian(R) 09 program.  It is based on
 the Gaussian(R) 03 system (copyright 2003, Gaussian, Inc.),
 the Gaussian(R) 98 system (copyright 1998, Gaussian, Inc.),
 the Gaussian(R) 94 system (copyright 1995, Gaussian, Inc.),
 the Gaussian 92(TM) system (copyright 1992, Gaussian, Inc.),
 the Gaussian 90(TM) system (copyright 1990, Gaussian, Inc.),
 the Gaussian 88(TM) system (copyright 1988, Gaussian, Inc.),
 the Gaussian 86(TM) system (copyright 1986, Carnegie Mellon
 University), and the Gaussian 82(TM) system (copyright 1983,
 Carnegie Mellon University). Gaussian is a federally registered
 trademark of Gaussian, Inc.
  
 This software contains proprietary and confidential information,
 including trade secrets, belonging to Gaussian, Inc.
  
 This software is provided under written license and may be
 used, copied, transmitted, or stored only in accord with that
 written license.
  
 The following legend is applicable only to US Government
 contracts under FAR:
  
                    RESTRICTED RIGHTS LEGEND
  
 Use, reproduction and disclosure by the US Government is
 subject to restrictions as set forth in subparagraphs (a)
 and (c) of the Commercial Computer Software - Restricted
 Rights clause in FAR 52.227-19.
  
 Gaussian, Inc.
 340 Quinnipiac St., Bldg. 40, Wallingford CT 06492
  
  
 ---------------------------------------------------------------
 Warning -- This program may not be used in any manner that
 competes with the business of Gaussian, Inc. or will provide
 assistance to any competitor of Gaussian, Inc.  The licensee
 of this program is prohibited from giving any competitor of
 Gaussian, Inc. access to this program.  By using this program,
 the user acknowledges that Gaussian, Inc. is engaged in the
 business of creating and licensing software in the field of
 computational chemistry and represents and warrants to the
 licensee that it is not a competitor of Gaussian, Inc. and that
 it will not use this program in any manner prohibited above.
 ---------------------------------------------------------------
  

 Cite this work as:
 Gaussian 09, Revision D.01,
 M. J. Frisch, G. W. Trucks, H. B. Schlegel, G. E. Scuseria, 
 M. A. Robb, J. R. Cheeseman, G. Scalmani, V. Barone, B. Mennucci, 
 G. A. Petersson, H. Nakatsuji, M. Caricato, X. Li, H. P. Hratchian, 
 A. F. Izmaylov, J. Bloino, G. Zheng, J. L. Sonnenberg, M. Hada, 
 M. Ehara, K. Toyota, R. Fukuda, J. Hasegawa, M. Ishida, T. Nakajima, 
 Y. Honda, O. Kitao, H. Nakai, T. Vreven, J. A. Montgomery, Jr., 
 J. E. Peralta, F. Ogliaro, M. Bearpark, J. J. Heyd, E. Brothers, 
 K. N. Kudin, V. N. Staroverov, T. Keith, R. Kobayashi, J. Normand, 
 K. Raghavachari, A. Rendell, J. C. Burant, S. S. Iyengar, J. Tomasi, 
 M. Cossi, N. Rega, J. M. Millam, M. Klene, J. E. Knox, J. B. Cross, 
 V. Bakken, C. Adamo, J. Jaramillo, R. Gomperts, R. E. Stratmann, 
 O. Yazyev, A. J. Austin, R. Cammi, C. Pomelli, J. W. Ochterski, 
 R. L. Martin, K. Morokuma, V. G. Zakrzewski, G. A. Voth, 
 P. Salvador, J. J. Dannenberg, S. Dapprich, A. D. Daniels, 
 O. Farkas, J. B. Foresman, J. V. Ortiz, J. Cioslowski, 
 and D. J. Fox, Gaussian, Inc., Wallingford CT, 2013.
 
 ******************************************
 Gaussian 09:  EM64L-G09RevD.01 24-Apr-2013
                16-Mar-2015 
 ******************************************
 ------------------------------------------------
 #P B3LYP/6-31G(D,P) TD(SINGLET,NSTATES=3,ROOT=1)
 ------------------------------------------------
 1/38=1/1;
 2/12=2,17=6,18=5,40=1/2;
 3/5=1,6=6,7=101,11=9,16=1,25=1,30=1,74=-5/1,2,8,3;
 4//1;
 5/5=2,38=5/2;
 8/6=1,10=2,107=1,108=3/1;
 9/8=1,41=3,42=1,48=1,70=2/14;
 6/7=2,8=2,9=2,10=2/1;
 99/5=1,9=1/99;
 Leave Link    1 at Mon Mar 16 15:42:50 2015, MaxMem=           0 cpu:         0.0
 (Enter /opt/g09_D01_em64t/g09/l101.exe)
 ---------------------------------------------
 ch2nh2 Point 2 -- high level on model system.
 ---------------------------------------------
 Symbolic Z-matrix:
 Charge =  0 Multiplicity = 1
 O                    -0.36871  -2.19424   0. 
 H                     0.59129  -2.19424   0. 
 H                    -0.68916  -1.28931   0. 
 
 NAtoms=      3 NQM=        3 NQMF=       0 NMMI=      0 NMMIF=      0
                NMic=       0 NMicF=      0.
                    Isotopes and Nuclear Properties:
 (Nuclear quadrupole moments (NQMom) in fm**2, nuclear magnetic moments (NMagM)
  in nuclear magnetons)

  Atom         1           2           3
 IAtWgt=          16           1           1
 AtmWgt=  15.9949146   1.0078250   1.0078250
 NucSpn=           0           1           1
 AtZEff=   0.0000000   0.0000000   0.0000000
 NQMom=    0.0000000   0.0000000   0.0000000
 NMagM=    0.0000000   2.7928460   2.7928460
 AtZNuc=   8.0000000   1.0000000   1.0000000
 Leave Link  101 at Mon Mar 16 15:42:50 2015, MaxMem=    33554432 cpu:         0.1
 (Enter /opt/g09_D01_em64t/g09/l202.exe)
                          Input orientation:                          
 ---------------------------------------------------------------------
 Center     Atomic      Atomic             Coordinates (Angstroms)
 Number     Number       Type             X           Y           Z
 ---------------------------------------------------------------------
      1          8           0       -0.368705   -2.194245    0.000000
      2          1           0        0.591295   -2.194245    0.000000
      3          1           0       -0.689160   -1.289309    0.000000
 ---------------------------------------------------------------------
                    Distance matrix (angstroms):
                    1          2          3
     1  O    0.000000
     2  H    0.960000   0.000000
     3  H    0.960000   1.567952   0.000000
 Stoichiometry    H2O
 Framework group  C2V[C2(O),SGV(H2)]
 Deg. of freedom     2
 Full point group                 C2V     NOp   4
 Largest Abelian subgroup         C2V     NOp   4
 Largest concise Abelian subgroup C2      NOp   2
                         Standard orientation:                         
 ---------------------------------------------------------------------
 Center     Atomic      Atomic             Coordinates (Angstroms)
 Number     Number       Type             X           Y           Z
 ---------------------------------------------------------------------
      1          8           0        0.000000    0.000000    0.110812
      2          1           0        0.000000    0.783976   -0.443248
      3          1           0        0.000000   -0.783976   -0.443248
 ---------------------------------------------------------------------
 Rotational constants (GHZ):    919.6759643    407.9403261    282.5913749
 Leave Link  202 at Mon Mar 16 15:42:50 2015, MaxMem=    33554432 cpu:         0.0
 (Enter /opt/g09_D01_em64t/g09/l301.exe)
 Standard basis: 6-31G(d,p) (6D, 7F)
 Ernie: Thresh=  0.10000D-02 Tol=  0.10000D-05 Strict=F.
 There are    12 symmetry adapted cartesian basis functions of A1  symmetry.
 There are     2 symmetry adapted cartesian basis functions of A2  symmetry.
 There are     4 symmetry adapted cartesian basis functions of B1  symmetry.
 There are     7 symmetry adapted cartesian basis functions of B2  symmetry.
 There are    12 symmetry adapted basis functions of A1  symmetry.
 There are     2 symmetry adapted basis functions of A2  symmetry.
 There are     4 symmetry adapted basis functions of B1  symmetry.
 There are     7 symmetry adapted basis functions of B2  symmetry.
    25 basis functions,    42 primitive gaussians,    25 cartesian basis functions
     5 alpha electrons        5 beta electrons
       nuclear repulsion energy         9.1571159843 Hartrees.
 IExCor=  402 DFT=T Ex+Corr=B3LYP ExCW=0 ScaHFX=  0.200000
 ScaDFX=  0.800000  0.720000  1.000000  0.810000 ScalE2=  1.000000  1.000000
 IRadAn=      0 IRanWt=     -1 IRanGd=            0 ICorTp=0 IEmpDi=  4
 NAtoms=    3 NActive=    3 NUniq=    2 SFac= 2.25D+00 NAtFMM=   60 NAOKFM=F Big=F
 Integral buffers will be    131072 words long.
 Regular integral format.
 Two-electron integral symmetry is turned on.
 Leave Link  301 at Mon Mar 16 15:42:50 2015, MaxMem=    33554432 cpu:         0.0
 (Enter /opt/g09_D01_em64t/g09/l302.exe)
 NPDir=0 NMtPBC=     1 NCelOv=     1 NCel=       1 NClECP=     1 NCelD=      1
         NCelK=      1 NCelE2=     1 NClLst=     1 CellRange=     0.0.
 One-electron integrals computed using PRISM.
 One-electron integral symmetry used in STVInt
 NBasis=    25 RedAO= T EigKep=  4.09D-02  NBF=    12     2     4     7
 NBsUse=    25 1.00D-06 EigRej= -1.00D+00 NBFU=    12     2     4     7
 Precomputing XC quadrature grid using
 IXCGrd= 4 IRadAn=           0 IRanWt=          -1 IRanGd=           0 AccXCQ= 0.00D+00.
 Generated NRdTot=       0 NPtTot=           0 NUsed=           0 NTot=          32
 NSgBfM=    25    25    25    25    25 MxSgAt=     3 MxSgA2=     3.
 Leave Link  302 at Mon Mar 16 15:42:50 2015, MaxMem=    33554432 cpu:         0.1
 (Enter /opt/g09_D01_em64t/g09/l308.exe)
 Leave Link  308 at Mon Mar 16 15:42:51 2015, MaxMem=    33554432 cpu:         0.0
 (Enter /opt/g09_D01_em64t/g09/l303.exe)
 DipDrv:  MaxL=1.
 Leave Link  303 at Mon Mar 16 15:42:51 2015, MaxMem=    33554432 cpu:         0.0
 (Enter /opt/g09_D01_em64t/g09/l401.exe)
 ExpMin= 1.61D-01 ExpMax= 5.48D+03 ExpMxC= 8.25D+02 IAcc=1 IRadAn=         1 AccDes= 0.00D+00
 Harris functional with IExCor=  402 and IRadAn=       1 diagonalized for initial guess.
 HarFok:  IExCor=  402 AccDes= 0.00D+00 IRadAn=         1 IDoV= 1 UseB2=F ITyADJ=14
 ICtDFT=  3500011 ScaDFX=  1.000000  1.000000  1.000000  1.000000
 FoFCou: FMM=F IPFlag=           0 FMFlag=      100000 FMFlg1=           0
         NFxFlg=           0 DoJE=T BraDBF=F KetDBF=T FulRan=T
         wScrn=  0.000000 ICntrl=     500 IOpCl=  0 I1Cent=   200000004 NGrid=           0
         NMat0=    1 NMatS0=      1 NMatT0=    0 NMatD0=    1 NMtDS0=    0 NMtDT0=    0
 Petite list used in FoFCou.
 Harris En= -76.4587215639577    
 JPrj=0 DoOrth=F DoCkMO=F.
 Initial guess orbital symmetries:
       Occupied  (A1) (A1) (B2) (A1) (B1)
       Virtual   (A1) (B2) (A1) (B2) (B1) (A1) (B2) (A1) (A2) (A1)
                 (B1) (A1) (B2) (B2) (B1) (A2) (A1) (A1) (B2) (A1)
 The electronic state of the initial guess is 1-A1.
 Leave Link  401 at Mon Mar 16 15:42:51 2015, MaxMem=    33554432 cpu:         0.1
 (Enter /opt/g09_D01_em64t/g09/l502.exe)
 Closed shell SCF:
 Using DIIS extrapolation, IDIIS=  1040.
 Integral symmetry usage will be decided dynamically.
 Keep R1 ints in memory in symmetry-blocked form, NReq=934767.
 IVT=       20833 IEndB=       20833 NGot=    33554432 MDV=    33517486
 LenX=    33517486 LenY=    33516420
 Requested convergence on RMS density matrix=1.00D-08 within 128 cycles.
 Requested convergence on MAX density matrix=1.00D-06.
 Requested convergence on             energy=1.00D-06.
 No special actions if energy rises.
 FoFCou: FMM=F IPFlag=           0 FMFlag=           0 FMFlg1=           0
         NFxFlg=           0 DoJE=F BraDBF=F KetDBF=F FulRan=T
         wScrn=  0.000000 ICntrl=     600 IOpCl=  0 I1Cent=           0 NGrid=           0
         NMat0=    1 NMatS0=    325 NMatT0=    0 NMatD0=    1 NMtDS0=    0 NMtDT0=    0
 Petite list used in FoFCou.
 Integral accuracy reduced to 1.0D-05 until final iterations.

 Cycle   1  Pass 0  IDiag  1:
 E= -76.3402802146319    
 DIIS: error= 7.56D-02 at cycle   1 NSaved=   1.
 NSaved= 1 IEnMin= 1 EnMin= -76.3402802146319     IErMin= 1 ErrMin= 7.56D-02
 ErrMax= 7.56D-02  0.00D+00 EMaxC= 1.00D-01 BMatC= 1.07D-01 BMatP= 1.07D-01
 IDIUse=3 WtCom= 2.44D-01 WtEn= 7.56D-01
 Coeff-Com:  0.100D+01
 Coeff-En:   0.100D+01
 Coeff:      0.100D+01
 Gap=     0.214 Goal=   None    Shift=    0.000
 GapD=    0.214 DampG=1.000 DampE=0.500 DampFc=0.5000 IDamp=-1.
 Damping current iteration by 5.00D-01
 RMSDP=2.21D-02 MaxDP=2.19D-01              OVMax= 1.98D-01

 Cycle   2  Pass 0  IDiag  1:
 E= -76.3676065796967     Delta-E=       -0.027326365065 Rises=F Damp=T
 DIIS: error= 1.78D-02 at cycle   2 NSaved=   2.
 NSaved= 2 IEnMin= 2 EnMin= -76.3676065796967     IErMin= 2 ErrMin= 1.78D-02
 ErrMax= 1.78D-02  0.00D+00 EMaxC= 1.00D-01 BMatC= 6.17D-03 BMatP= 1.07D-01
 IDIUse=3 WtCom= 8.22D-01 WtEn= 1.78D-01
 Coeff-Com:  0.179D+00 0.821D+00
 Coeff-En:   0.294D+00 0.706D+00
 Coeff:      0.199D+00 0.801D+00
 Gap=     0.344 Goal=   None    Shift=    0.000
 RMSDP=2.61D-03 MaxDP=3.61D-02 DE=-2.73D-02 OVMax= 1.13D-01

 Cycle   3  Pass 0  IDiag  1:
 E= -76.4188171125652     Delta-E=       -0.051210532869 Rises=F Damp=F
 DIIS: error= 2.70D-03 at cycle   3 NSaved=   3.
 NSaved= 3 IEnMin= 3 EnMin= -76.4188171125652     IErMin= 3 ErrMin= 2.70D-03
 ErrMax= 2.70D-03  0.00D+00 EMaxC= 1.00D-01 BMatC= 1.70D-04 BMatP= 6.17D-03
 IDIUse=3 WtCom= 9.73D-01 WtEn= 2.70D-02
 Coeff-Com:  0.341D-01-0.144D-01 0.980D+00
 Coeff-En:   0.000D+00 0.000D+00 0.100D+01
 Coeff:      0.331D-01-0.140D-01 0.981D+00
 Gap=     0.357 Goal=   None    Shift=    0.000
 RMSDP=3.13D-04 MaxDP=3.32D-03 DE=-5.12D-02 OVMax= 2.86D-03

 Cycle   4  Pass 0  IDiag  1:
 E= -76.4189289584341     Delta-E=       -0.000111845869 Rises=F Damp=F
 DIIS: error= 3.00D-04 at cycle   4 NSaved=   4.
 NSaved= 4 IEnMin= 4 EnMin= -76.4189289584341     IErMin= 4 ErrMin= 3.00D-04
 ErrMax= 3.00D-04  0.00D+00 EMaxC= 1.00D-01 BMatC= 2.29D-06 BMatP= 1.70D-04
 IDIUse=3 WtCom= 9.97D-01 WtEn= 3.00D-03
 Coeff-Com:  0.620D-02-0.179D-01 0.226D+00 0.786D+00
 Coeff-En:   0.000D+00 0.000D+00 0.000D+00 0.100D+01
 Coeff:      0.618D-02-0.179D-01 0.225D+00 0.787D+00
 Gap=     0.357 Goal=   None    Shift=    0.000
 RMSDP=2.80D-05 MaxDP=2.06D-04 DE=-1.12D-04 OVMax= 2.94D-04

 Cycle   5  Pass 0  IDiag  1:
 E= -76.4189305832131     Delta-E=       -0.000001624779 Rises=F Damp=F
 DIIS: error= 5.45D-05 at cycle   5 NSaved=   5.
 NSaved= 5 IEnMin= 5 EnMin= -76.4189305832131     IErMin= 5 ErrMin= 5.45D-05
 ErrMax= 5.45D-05  0.00D+00 EMaxC= 1.00D-01 BMatC= 4.92D-08 BMatP= 2.29D-06
 IDIUse=1 WtCom= 1.00D+00 WtEn= 0.00D+00
 Coeff-Com:  0.673D-03-0.703D-03 0.367D-02 0.114D-01 0.985D+00
 Coeff:      0.673D-03-0.703D-03 0.367D-02 0.114D-01 0.985D+00
 Gap=     0.358 Goal=   None    Shift=    0.000
 RMSDP=6.36D-06 MaxDP=7.44D-05 DE=-1.62D-06 OVMax= 5.08D-05

 Initial convergence to 1.0D-05 achieved.  Increase integral accuracy.
 Cycle   6  Pass 1  IDiag  1:
 E= -76.4189292078489     Delta-E=        0.000001375364 Rises=F Damp=F
 DIIS: error= 1.33D-06 at cycle   1 NSaved=   1.
 NSaved= 1 IEnMin= 1 EnMin= -76.4189292078489     IErMin= 1 ErrMin= 1.33D-06
 ErrMax= 1.33D-06  0.00D+00 EMaxC= 1.00D-01 BMatC= 6.19D-11 BMatP= 6.19D-11
 IDIUse=1 WtCom= 1.00D+00 WtEn= 0.00D+00
 Coeff-Com:  0.100D+01
 Coeff:      0.100D+01
 Gap=     0.358 Goal=   None    Shift=    0.000
 RMSDP=6.36D-06 MaxDP=7.44D-05 DE= 1.38D-06 OVMax= 2.28D-06

 Cycle   7  Pass 1  IDiag  1:
 E= -76.4189292078982     Delta-E=       -0.000000000049 Rises=F Damp=F
 DIIS: error= 2.76D-07 at cycle   2 NSaved=   2.
 NSaved= 2 IEnMin= 2 EnMin= -76.4189292078982     IErMin= 2 ErrMin= 2.76D-07
 ErrMax= 2.76D-07  0.00D+00 EMaxC= 1.00D-01 BMatC= 1.84D-12 BMatP= 6.19D-11
 IDIUse=1 WtCom= 1.00D+00 WtEn= 0.00D+00
 Coeff-Com:  0.152D-01 0.985D+00
 Coeff:      0.152D-01 0.985D+00
 Gap=     0.358 Goal=   None    Shift=    0.000
 RMSDP=7.19D-08 MaxDP=8.08D-07 DE=-4.93D-11 OVMax= 7.83D-07

 Cycle   8  Pass 1  IDiag  1:
 E= -76.4189292078978     Delta-E=        0.000000000000 Rises=F Damp=F
 DIIS: error= 3.79D-07 at cycle   3 NSaved=   3.
 NSaved= 3 IEnMin= 2 EnMin= -76.4189292078982     IErMin= 2 ErrMin= 2.76D-07
 ErrMax= 3.79D-07  0.00D+00 EMaxC= 1.00D-01 BMatC= 2.70D-12 BMatP= 1.84D-12
 IDIUse=1 WtCom= 1.00D+00 WtEn= 0.00D+00
 Coeff-Com: -0.223D-01 0.560D+00 0.463D+00
 Coeff:     -0.223D-01 0.560D+00 0.463D+00
 Gap=     0.358 Goal=   None    Shift=    0.000
 RMSDP=4.34D-08 MaxDP=3.84D-07 DE= 4.26D-13 OVMax= 4.04D-07

 Cycle   9  Pass 1  IDiag  1:
 E= -76.4189292078997     Delta-E=       -0.000000000002 Rises=F Damp=F
 DIIS: error= 2.37D-08 at cycle   4 NSaved=   4.
 NSaved= 4 IEnMin= 4 EnMin= -76.4189292078997     IErMin= 4 ErrMin= 2.37D-08
 ErrMax= 2.37D-08  0.00D+00 EMaxC= 1.00D-01 BMatC= 1.65D-14 BMatP= 1.84D-12
 IDIUse=1 WtCom= 1.00D+00 WtEn= 0.00D+00
 Coeff-Com: -0.644D-02 0.130D+00 0.141D+00 0.735D+00
 Coeff:     -0.644D-02 0.130D+00 0.141D+00 0.735D+00
 Gap=     0.358 Goal=   None    Shift=    0.000
 RMSDP=2.79D-09 MaxDP=2.48D-08 DE=-1.90D-12 OVMax= 2.91D-08

 SCF Done:  E(RB3LYP) =  -76.4189292079     A.U. after    9 cycles
            NFock=  9  Conv=0.28D-08     -V/T= 2.0077
 KE= 7.583270268963D+01 PE=-1.989439830818D+02 EE= 3.753523519997D+01
 Leave Link  502 at Mon Mar 16 15:42:51 2015, MaxMem=    33554432 cpu:         0.2
 (Enter /opt/g09_D01_em64t/g09/l801.exe)
 DoSCS=F DFT=T ScalE2(SS,OS)=  1.000000  1.000000
 ExpMin= 1.61D-01 ExpMax= 5.48D+03 ExpMxC= 8.25D+02 IAcc=3 IRadAn=         5 AccDes= 0.00D+00
 HarFok:  IExCor=  205 AccDes= 0.00D+00 IRadAn=         5 IDoV=-2 UseB2=F ITyADJ=14
 ICtDFT= 12500011 ScaDFX=  1.000000  1.000000  1.000000  1.000000
 Largest valence mixing into a core orbital is  2.73D-05
 Largest core mixing into a valence orbital is  6.18D-06
 Range of M.O.s used for correlation:     2    25
 NBasis=    25 NAE=     5 NBE=     5 NFC=     1 NFV=     0
 NROrb=     24 NOA=     4 NOB=     4 NVA=    20 NVB=    20
 Leave Link  801 at Mon Mar 16 15:42:52 2015, MaxMem=    33554432 cpu:         0.1
 (Enter /opt/g09_D01_em64t/g09/l914.exe)
 RHF ground state
 MDV=    33554432 DFT=T DoStab=F Mixed=T DoRPA=T DoScal=F NonHer=T
 Keep R1, R2, and R3 ints in memory in symmetry-blocked form, NReq=1002147.
 FoFCou: FMM=F IPFlag=           0 FMFlag=           0 FMFlg1=           0
         NFxFlg=           0 DoJE=F BraDBF=F KetDBF=F FulRan=T
         wScrn=  0.000000 ICntrl=     600 IOpCl=  0 I1Cent=           0 NGrid=           0
         NMat0=    1 NMatS0=    325 NMatT0=    0 NMatD0=    1 NMtDS0=    0 NMtDT0=    0
 Petite list used in FoFCou.
 Making orbital integer symmetry assigments:
 Orbital symmetries:
       Occupied  (A1) (A1) (B2) (A1) (B1)
       Virtual   (A1) (B2) (B2) (A1) (A1) (B1) (B2) (A1) (A2) (A1)
                 (B1) (B2) (A1) (B2) (B1) (A2) (A1) (A1) (B2) (A1)
    12 initial guesses have been made.
 Convergence on wavefunction:    0.001000000000000
 Davidson Disk Diagonalization:  ConvIn= 1.00D-03 SkipCon=T Conv= 1.00D-03.
 Max sub-space:   200 roots to seek:    12 dimension of matrix:          160
 Iteration     1 Dimension    12 NMult     0 NNew     12
 CISAX will form    12 AO SS matrices at one time.
 NMat=    12 NSing=    12 JSym2X=-1.
 New state      2 was old state      3
 New state      3 was old state      2
 Excitation Energies [eV] at current iteration:
 Root      1 :     8.086574656072036
 Root      2 :    10.127472719252540
 Root      3 :    10.365711006258500
 Root      4 :    12.584177246340510
 Root      5 :    14.974440737755610
 Root      6 :    19.018267185255800
 Root      7 :    26.707915025647010
 Root      8 :    27.674609522645730
 Root      9 :    28.119435274553010
 Root     10 :    29.580291963126680
 Root     11 :    31.051561226194960
 Root     12 :    31.810622461998010
 Iteration     2 Dimension    18 NMult    12 NNew      6
 CISAX will form     6 AO SS matrices at one time.
 NMat=     6 NSing=     6 JSym2X=-1.
 Root      1 not converged, maximum delta is    0.013684335922082
 Root      2 not converged, maximum delta is    0.017172418306849
 Root      3 not converged, maximum delta is    0.034322759309116
 Excitation Energies [eV] at current iteration:
 Root      1 :     8.031336636742497   Change is   -0.055238019329539
 Root      2 :    10.103847220175180   Change is   -0.023625499077361
 Root      3 :    10.247310284780900   Change is   -0.118400721477599
 Iteration     3 Dimension    24 NMult    18 NNew      6
 CISAX will form     6 AO SS matrices at one time.
 NMat=     6 NSing=     6 JSym2X=-1.
 Root      1 not converged, maximum delta is    0.001031508522981
 Root      2 has converged.
 Root      3 not converged, maximum delta is    0.004147511724301
 Excitation Energies [eV] at current iteration:
 Root      1 :     8.030989916655196   Change is   -0.000346720087300
 Root      2 :    10.103803800167840   Change is   -0.000043420007339
 Root      3 :    10.244776768521630   Change is   -0.002533516259275
 Iteration     4 Dimension    28 NMult    24 NNew      4
 CISAX will form     4 AO SS matrices at one time.
 NMat=     4 NSing=     4 JSym2X=-1.
 Root      1 has converged.
 Root      2 has converged.
 Root      3 has converged.
 Excitation Energies [eV] at current iteration:
 Root      1 :     8.030988951414631   Change is   -0.000000965240565
 Root      2 :    10.103803800167880   Change is    0.000000000000032
 Root      3 :    10.244748478504460   Change is   -0.000028290017168
 Convergence achieved on expansion vectors.
 ***********************************************************************
 Excited states from <AA,BB:AA,BB> singles matrix:
 ***********************************************************************
 
 1PDM for each excited state written to RWF  633
 Ground to excited state transition densities written to RWF  633
 Ground to excited state transition electric dipole moments (Au):
       state          X           Y           Z        Dip. S.      Osc.
         1         0.2672      0.0000      0.0000      0.0714      0.0140
         2         0.0000      0.0000      0.0000      0.0000      0.0000
         3         0.0000      0.0000      0.5765      0.3323      0.0834
 Ground to excited state transition velocity dipole moments (Au):
       state          X           Y           Z        Dip. S.      Osc.
         1        -0.1684      0.0000      0.0000      0.0283      0.0640
         2         0.0000      0.0000      0.0000      0.0000      0.0000
         3         0.0000      0.0000     -0.2917      0.0851      0.1507
 Ground to excited state transition magnetic dipole moments (Au):
       state          X           Y           Z
         1         0.0000      0.2105      0.0000
         2         0.0000      0.0000     -0.3028
         3         0.0000      0.0000      0.0000
 Ground to excited state transition velocity quadrupole moments (Au):
       state          XX          YY          ZZ          XY          XZ          YZ
         1         0.0000      0.0000      0.0000      0.0000      0.1173      0.0000
         2         0.0000      0.0000      0.0000      0.2528      0.0000      0.0000
         3         0.0045      0.1604      0.2533      0.0000      0.0000      0.0000
 <0|del|b> * <b|rxdel|0> + <0|del|b> * <b|delr+rdel|0>
 Rotatory Strengths (R) in cgs (10**-40 erg-esu-cm/Gauss)
       state          XX          YY          ZZ    R(velocity)    E-M Angle
         1         0.0000      0.0000      0.0000      0.0000       90.00
         2         0.0000      0.0000      0.0000      0.0000       90.00
         3         0.0000      0.0000      0.0000      0.0000       90.00
 1/2[<0|r|b>*<b|rxdel|0> + (<0|rxdel|b>*<b|r|0>)*]
 Rotatory Strengths (R) in cgs (10**-40 erg-esu-cm/Gauss)
       state          XX          YY          ZZ     R(length)
         1         0.0000      0.0000      0.0000      0.0000
         2         0.0000      0.0000      0.0000      0.0000
         3         0.0000      0.0000      0.0000      0.0000
  1/2[<0|del|b>*<b|r|0> + (<0|r|b>*<b|del|0>)*] (Au)
       state          X           Y           Z        Dip. S.   Osc.(frdel)
         1        -0.0450      0.0000      0.0000      0.0450      0.0300
         2         0.0000      0.0000      0.0000      0.0000      0.0000
         3         0.0000      0.0000     -0.1682      0.1682      0.1121

 Excitation energies and oscillator strengths:
 
 Excited State   1:      Singlet-B1     8.0310 eV  154.38 nm  f=0.0140  <S**2>=0.000
       5 ->  6         0.70714
 This state for optimization and/or second-order correction.
 Total Energy, E(TD-HF/TD-KS) =  -76.1237957817    
 Copying the excited state density for this state as the 1-particle RhoCI density.
 
 Excited State   2:      Singlet-A2    10.1038 eV  122.71 nm  f=0.0000  <S**2>=0.000
       5 ->  7         0.70666
 
 Excited State   3:      Singlet-A1    10.2447 eV  121.02 nm  f=0.0834  <S**2>=0.000
       4 ->  6         0.70316
 SavETr:  write IOETrn=   770 NScale= 10 NData=  16 NLR=1 NState=    3 LETran=      64.
 Leave Link  914 at Mon Mar 16 15:42:52 2015, MaxMem=    33554432 cpu:         0.6
 (Enter /opt/g09_D01_em64t/g09/l601.exe)
 Copying SCF densities to generalized density rwf, IOpCl= 0 IROHF=0.

 **********************************************************************

            Population analysis using the SCF density.

 **********************************************************************

 Orbital symmetries:
       Occupied  (A1) (A1) (B2) (A1) (B1)
       Virtual   (A1) (B2) (B2) (A1) (A1) (B1) (B2) (A1) (A2) (A1)
                 (B1) (B2) (A1) (B2) (B1) (A2) (A1) (A1) (B2) (A1)
 The electronic state is 1-A1.
 Alpha  occ. eigenvalues --  -19.13400  -0.99453  -0.52634  -0.35965  -0.29032
 Alpha virt. eigenvalues --    0.06722   0.15449   0.77849   0.79540   0.88825
 Alpha virt. eigenvalues --    0.89280   1.01925   1.15973   1.51863   1.57894
 Alpha virt. eigenvalues --    1.66293   2.23120   2.24126   2.48016   2.63303
 Alpha virt. eigenvalues --    2.68274   3.03447   3.32849   3.51472   3.72890
          Condensed to atoms (all electrons):
               1          2          3
     1  O    8.042764   0.288404   0.288404
     2  H    0.288404   0.428320  -0.026510
     3  H    0.288404  -0.026510   0.428320
 Mulliken charges:
               1
     1  O   -0.619572
     2  H    0.309786
     3  H    0.309786
 Sum of Mulliken charges =   0.00000
 Mulliken charges with hydrogens summed into heavy atoms:
               1
     1  O    0.000000
 Electronic spatial extent (au):  <R**2>=             19.0009
 Charge=              0.0000 electrons
 Dipole moment (field-independent basis, Debye):
    X=              0.0000    Y=              0.0000    Z=             -1.9531  Tot=              1.9531
 Quadrupole moment (field-independent basis, Debye-Ang):
   XX=             -7.1262   YY=             -4.0540   ZZ=             -6.1132
   XY=              0.0000   XZ=              0.0000   YZ=              0.0000
 Traceless Quadrupole moment (field-independent basis, Debye-Ang):
   XX=             -1.3617   YY=              1.7105   ZZ=             -0.3487
   XY=              0.0000   XZ=              0.0000   YZ=              0.0000
 Octapole moment (field-independent basis, Debye-Ang**2):
  XXX=              0.0000  YYY=              0.0000  ZZZ=             -1.0737  XYY=              0.0000
  XXY=              0.0000  XXZ=             -0.2880  XZZ=              0.0000  YZZ=              0.0000
  YYZ=             -1.2049  XYZ=              0.0000
 Hexadecapole moment (field-independent basis, Debye-Ang**3):
 XXXX=             -5.1120 YYYY=             -5.9036 ZZZZ=             -6.1394 XXXY=              0.0000
 XXXZ=              0.0000 YYYX=              0.0000 YYYZ=              0.0000 ZZZX=              0.0000
 ZZZY=              0.0000 XXYY=             -2.1310 XXZZ=             -1.9156 YYZZ=             -1.7463
 XXYZ=              0.0000 YYXZ=              0.0000 ZZXY=              0.0000
 N-N= 9.157115984281D+00 E-N=-1.989439824616D+02  KE= 7.583270268963D+01
 Symmetry A1   KE= 6.770207161975D+01
 Symmetry A2   KE= 1.790739885373D-36
 Symmetry B1   KE= 4.585295021303D+00
 Symmetry B2   KE= 3.545336048574D+00
 Leave Link  601 at Mon Mar 16 15:42:53 2015, MaxMem=    33554432 cpu:         0.0
 (Enter /opt/g09_D01_em64t/g09/l9999.exe)
 1\1\GINC-EAM\SP\RB3LYP TD-FC\6-31G(d,p)\H2O1\DULIKAI\16-Mar-2015\0\\#P
  B3LYP/6-31G(D,P) TD(SINGLET,NSTATES=3,ROOT=1)\\ch2nh2 Point 2 -- high
  level on model system.\\0,1\O,0,-0.36870503,-2.19424457,0.\H,0,0.5912
 9497,-2.19424457,0.\H,0,-0.68915962,-1.28930874,0.\\Version=EM64L-G09R
 evD.01\State=1-A1\HF=-76.4189292\RMSD=2.794e-09\PG=C02V [C2(O1),SGV(H2
 )]\\@


 THIS CURIOUS WORLD WHICH WE INHABIT IS MORE WONDERFUL THAN IT IS CONVENIENT;
 MORE BEAUTIFUL THAN IT IS USEFUL;
 IT IS MORE TO BE ADMIRED THAN IT IS TO BE USED.

                                                                 -- THOREAU
 Job cpu time:       0 days  0 hours  0 minutes  1.5 seconds.
 File lengths (MBytes):  RWF=      5 Int=      0 D2E=      0 Chk=      1 Scr=      1
 Normal termination of Gaussian 09 at Mon Mar 16 15:42:53 2015.
