 Entering Gaussian System, Link 0=g09
 Input=mm.gjf
 Output=mm.log
 Initial command:
 /opt/g09_D01_em64t/g09/l1.exe "/tmp/Gau-22109.inp" -scrdir="/tmp/"
 Entering Link 1 = /opt/g09_D01_em64t/g09/l1.exe PID=     22110.
  
 Copyright (c) 1988,1990,1992,1993,1995,1998,2003,2009,2013,
            Gaussian, Inc.  All Rights Reserved.
  
 This is part of the Gaussian(R) 09 program.  It is based on
 the Gaussian(R) 03 system (copyright 2003, Gaussian, Inc.),
 the Gaussian(R) 98 system (copyright 1998, Gaussian, Inc.),
 the Gaussian(R) 94 system (copyright 1995, Gaussian, Inc.),
 the Gaussian 92(TM) system (copyright 1992, Gaussian, Inc.),
 the Gaussian 90(TM) system (copyright 1990, Gaussian, Inc.),
 the Gaussian 88(TM) system (copyright 1988, Gaussian, Inc.),
 the Gaussian 86(TM) system (copyright 1986, Carnegie Mellon
 University), and the Gaussian 82(TM) system (copyright 1983,
 Carnegie Mellon University). Gaussian is a federally registered
 trademark of Gaussian, Inc.
  
 This software contains proprietary and confidential information,
 including trade secrets, belonging to Gaussian, Inc.
  
 This software is provided under written license and may be
 used, copied, transmitted, or stored only in accord with that
 written license.
  
 The following legend is applicable only to US Government
 contracts under FAR:
  
                    RESTRICTED RIGHTS LEGEND
  
 Use, reproduction and disclosure by the US Government is
 subject to restrictions as set forth in subparagraphs (a)
 and (c) of the Commercial Computer Software - Restricted
 Rights clause in FAR 52.227-19.
  
 Gaussian, Inc.
 340 Quinnipiac St., Bldg. 40, Wallingford CT 06492
  
  
 ---------------------------------------------------------------
 Warning -- This program may not be used in any manner that
 competes with the business of Gaussian, Inc. or will provide
 assistance to any competitor of Gaussian, Inc.  The licensee
 of this program is prohibited from giving any competitor of
 Gaussian, Inc. access to this program.  By using this program,
 the user acknowledges that Gaussian, Inc. is engaged in the
 business of creating and licensing software in the field of
 computational chemistry and represents and warrants to the
 licensee that it is not a competitor of Gaussian, Inc. and that
 it will not use this program in any manner prohibited above.
 ---------------------------------------------------------------
  

 Cite this work as:
 Gaussian 09, Revision D.01,
 M. J. Frisch, G. W. Trucks, H. B. Schlegel, G. E. Scuseria, 
 M. A. Robb, J. R. Cheeseman, G. Scalmani, V. Barone, B. Mennucci, 
 G. A. Petersson, H. Nakatsuji, M. Caricato, X. Li, H. P. Hratchian, 
 A. F. Izmaylov, J. Bloino, G. Zheng, J. L. Sonnenberg, M. Hada, 
 M. Ehara, K. Toyota, R. Fukuda, J. Hasegawa, M. Ishida, T. Nakajima, 
 Y. Honda, O. Kitao, H. Nakai, T. Vreven, J. A. Montgomery, Jr., 
 J. E. Peralta, F. Ogliaro, M. Bearpark, J. J. Heyd, E. Brothers, 
 K. N. Kudin, V. N. Staroverov, T. Keith, R. Kobayashi, J. Normand, 
 K. Raghavachari, A. Rendell, J. C. Burant, S. S. Iyengar, J. Tomasi, 
 M. Cossi, N. Rega, J. M. Millam, M. Klene, J. E. Knox, J. B. Cross, 
 V. Bakken, C. Adamo, J. Jaramillo, R. Gomperts, R. E. Stratmann, 
 O. Yazyev, A. J. Austin, R. Cammi, C. Pomelli, J. W. Ochterski, 
 R. L. Martin, K. Morokuma, V. G. Zakrzewski, G. A. Voth, 
 P. Salvador, J. J. Dannenberg, S. Dapprich, A. D. Daniels, 
 O. Farkas, J. B. Foresman, J. V. Ortiz, J. Cioslowski, 
 and D. J. Fox, Gaussian, Inc., Wallingford CT, 2013.
 
 ******************************************
 Gaussian 09:  EM64L-G09RevD.01 24-Apr-2013
                16-Mar-2015 
 ******************************************
 -----------
 #P Test UFF
 -----------
 1/38=1,56=1,64=2/1;
 2/12=2,17=6,18=5,40=1/2;
 3/5=30,11=9,16=1,25=1,30=1,41=10200000,43=2/1;
 4/20=10,24=3/2;
 99/5=1,9=1/99;
 Leave Link    1 at Mon Mar 16 16:03:22 2015, MaxMem=           0 cpu:         0.0
 (Enter /opt/g09_D01_em64t/g09/l101.exe)
 --------------------------------------------
 ch2nh2 Point 1 -- low level on model system.
 --------------------------------------------
 Symbolic Z-matrix:
 Charge =  0 Multiplicity = 1
 O-O_3--0.834000      -0.36871  -2.19424   0. 
 H-H_-0.417000         0.59129  -2.19424   0. 
 H-H_-0.417000        -0.68916  -1.28931   0. 
 
 NAtoms=      3 NQM=        3 NQMF=       0 NMMI=      0 NMMIF=      0
                NMic=       0 NMicF=      0.
                    Isotopes and Nuclear Properties:
 (Nuclear quadrupole moments (NQMom) in fm**2, nuclear magnetic moments (NMagM)
  in nuclear magnetons)

  Atom         1           2           3
 IAtWgt=          16           1           1
 AtmWgt=  15.9949146   1.0078250   1.0078250
 NucSpn=           0           1           1
 AtZEff=   0.0000000   0.0000000   0.0000000
 NQMom=    0.0000000   0.0000000   0.0000000
 NMagM=    0.0000000   2.7928460   2.7928460
 AtZNuc=   8.0000000   1.0000000   1.0000000
 Generating MM parameters.
 Include all MM classes

 MM sanity checks:
 All charges sum to:                0.00000000
 Charges of atoms sum to:           0.00000000
 MMInit generated parameter data with length LenPar=         499.
 MM Charge=              0.0000 electrons
 MM Dipole moment (Debye):
    X=              1.2810    Y=              1.8125    Z=              0.0000  Tot=              2.2195
 MM Quadrupole moment (Debye-Ang):
   XX=              1.1070   YY=             -6.3140   ZZ=              0.0000
   XY=             -4.0599   XZ=              0.0000   YZ=              0.0000
 MM Traceless Quadrupole moment (Debye-Ang):
   XX=              2.8427   YY=             -4.5784   ZZ=              1.7357
   XY=             -4.0599   XZ=              0.0000   YZ=              0.0000
 MM Octapole moment (Debye-Ang**2):
  XXX=             -0.0407  YYY=             16.8675  ZZZ=              0.0000  XYY=             10.5189
  XXY=             -1.5682  XXZ=              0.0000  XZZ=              0.0000  YZZ=              0.0000
  YYZ=              0.0000  XYZ=              0.0000
 MM Hexadecapole moment (Debye-Ang**3):
 XXXX=              0.6226 YYYY=            -40.8962 ZZZZ=              0.0000 XXXY=             -0.5039
 XXXZ=              0.0000 YYYX=            -25.1574 YYYZ=              0.0000 ZZZX=              0.0000
 ZZZY=              0.0000 XXYY=              2.3310 XXZZ=              0.0000 YYZZ=              0.0000
 XXYZ=              0.0000 YYXZ=              0.0000 ZZXY=              0.0000
 Leave Link  101 at Mon Mar 16 16:03:22 2015, MaxMem=    33554432 cpu:         0.1
 (Enter /opt/g09_D01_em64t/g09/l202.exe)
                          Input orientation:                          
 ---------------------------------------------------------------------
 Center     Atomic      Atomic             Coordinates (Angstroms)
 Number     Number       Type             X           Y           Z
 ---------------------------------------------------------------------
      1          8    10081003       -0.368705   -2.194245    0.000000
      2          1    10011000        0.591295   -2.194245    0.000000
      3          1    10011000       -0.689160   -1.289309    0.000000
 ---------------------------------------------------------------------
                    Distance matrix (angstroms):
                    1          2          3
     1  O    0.000000
     2  H    0.960000   0.000000
     3  H    0.960000   1.567952   0.000000
 Stoichiometry    H2O
 Framework group  C2V[C2(O),SGV(H2)]
 Deg. of freedom     2
 Full point group                 C2V     NOp   4
 Largest Abelian subgroup         C2V     NOp   4
 Largest concise Abelian subgroup C2      NOp   2
                         Standard orientation:                         
 ---------------------------------------------------------------------
 Center     Atomic      Atomic             Coordinates (Angstroms)
 Number     Number       Type             X           Y           Z
 ---------------------------------------------------------------------
      1          8    10081003        0.000000    0.000000    0.110812
      2          1    10011000        0.000000    0.783976   -0.443248
      3          1    10011000        0.000000   -0.783976   -0.443248
 ---------------------------------------------------------------------
 Rotational constants (GHZ):    919.6759643    407.9403261    282.5913749
 Leave Link  202 at Mon Mar 16 16:03:22 2015, MaxMem=    33554432 cpu:         0.0
 (Enter /opt/g09_D01_em64t/g09/l301.exe)
 Standard basis: Dummy (5D, 7F)
 There are     2 symmetry adapted cartesian basis functions of A1  symmetry.
 There are     0 symmetry adapted cartesian basis functions of A2  symmetry.
 There are     0 symmetry adapted cartesian basis functions of B1  symmetry.
 There are     1 symmetry adapted cartesian basis functions of B2  symmetry.
 There are     2 symmetry adapted basis functions of A1  symmetry.
 There are     0 symmetry adapted basis functions of A2  symmetry.
 There are     0 symmetry adapted basis functions of B1  symmetry.
 There are     1 symmetry adapted basis functions of B2  symmetry.
     3 basis functions,     3 primitive gaussians,     3 cartesian basis functions
     2 alpha electrons        2 beta electrons
       nuclear repulsion energy         2.5424008773 Hartrees.
 IExCor=    0 DFT=F Ex=HF Corr=None ExCW=0 ScaHFX=  1.000000
 ScaDFX=  1.000000  1.000000  1.000000  1.000000 ScalE2=  1.000000  1.000000
 IRadAn=      0 IRanWt=     -1 IRanGd=            0 ICorTp=0 IEmpDi=  4
 NAtoms=    3 NActive=    3 NUniq=    2 SFac= 2.25D+00 NAtFMM=   60 NAOKFM=F Big=F
 Integral buffers will be    131072 words long.
 Raffenetti 1 integral format.
 Two-electron integral symmetry is turned on.
 Leave Link  301 at Mon Mar 16 16:03:22 2015, MaxMem=    33554432 cpu:         0.0
 (Enter /opt/g09_D01_em64t/g09/l402.exe)
 UFF calculation of energy.
 Energy per function type:
 Direct Coulomb + vdW (small)                           0.000000000
 Direct Coulomb (large)                                -0.324721917
 Direct vdW (large)                                   283.554771663
 Non-direct Coulomb + vdW (small)                       0.000000000
 Non-direct Coulomb (large)                             0.324721917
 Non-direct vdW (large)                              -283.554771663
 Harmonic stretch III                                   0.001633693
 UFF 3-term bend                                        0.000710146
 Energy per function class:
        Coulomb               0.000000000
    Vanderwaals               0.000000000
     Stretching               0.001633693
        Bending               0.000710146
 Energy=    2.343838840E-03 NIter=   0.
 Dipole moment=       0.000000       0.000000      -0.873215
 Leave Link  402 at Mon Mar 16 16:03:22 2015, MaxMem=    33554432 cpu:         0.0
 (Enter /opt/g09_D01_em64t/g09/l9999.exe)

 Test job not archived.
 1\1\GINC-EAM\SP\RUFF\ZDO\H2O1\DULIKAI\16-Mar-2015\0\\#P Test UFF\\ch2n
 h2 Point 1 -- low level on model system.\\0,1\O,0,-0.36870503,-2.19424
 457,0.\H,0,0.59129497,-2.19424457,0.\H,0,-0.68915962,-1.28930874,0.\\V
 ersion=EM64L-G09RevD.01\HF=0.0023438\RMSD=0.000e+00\Dipole=0.5039719,0
 .7131037,0.\PG=C02V [C2(O1),SGV(H2)]\\@


 IF YOU WANT TO LEARN FROM THE THEORETICAL PHYSICISTS ABOUT THE
 METHODS WHICH THEY USE, I ADVISE YOU TO FOLLOW THIS PRINCIPLE VERY STRICTLY:
 DON'T LISTEN TO THEIR WORDS; PAY ATTENTION, INSTEAD, TO THEIR ACTIONS.
 -- A.EINSTEIN, 1934
 Job cpu time:       0 days  0 hours  0 minutes  0.2 seconds.
 File lengths (MBytes):  RWF=      5 Int=      0 D2E=      0 Chk=      1 Scr=      1
 Normal termination of Gaussian 09 at Mon Mar 16 16:03:22 2015.
