 Entering Gaussian System, Link 0=g09
 Input=qm1.gjf
 Output=qm1.log
 Initial command:
 /opt/g09_D01_em64t/g09/l1.exe "/tmp/Gau-24342.inp" -scrdir="/tmp/"
 Entering Link 1 = /opt/g09_D01_em64t/g09/l1.exe PID=     24343.
  
 Copyright (c) 1988,1990,1992,1993,1995,1998,2003,2009,2013,
            Gaussian, Inc.  All Rights Reserved.
  
 This is part of the Gaussian(R) 09 program.  It is based on
 the Gaussian(R) 03 system (copyright 2003, Gaussian, Inc.),
 the Gaussian(R) 98 system (copyright 1998, Gaussian, Inc.),
 the Gaussian(R) 94 system (copyright 1995, Gaussian, Inc.),
 the Gaussian 92(TM) system (copyright 1992, Gaussian, Inc.),
 the Gaussian 90(TM) system (copyright 1990, Gaussian, Inc.),
 the Gaussian 88(TM) system (copyright 1988, Gaussian, Inc.),
 the Gaussian 86(TM) system (copyright 1986, Carnegie Mellon
 University), and the Gaussian 82(TM) system (copyright 1983,
 Carnegie Mellon University). Gaussian is a federally registered
 trademark of Gaussian, Inc.
  
 This software contains proprietary and confidential information,
 including trade secrets, belonging to Gaussian, Inc.
  
 This software is provided under written license and may be
 used, copied, transmitted, or stored only in accord with that
 written license.
  
 The following legend is applicable only to US Government
 contracts under FAR:
  
                    RESTRICTED RIGHTS LEGEND
  
 Use, reproduction and disclosure by the US Government is
 subject to restrictions as set forth in subparagraphs (a)
 and (c) of the Commercial Computer Software - Restricted
 Rights clause in FAR 52.227-19.
  
 Gaussian, Inc.
 340 Quinnipiac St., Bldg. 40, Wallingford CT 06492
  
  
 ---------------------------------------------------------------
 Warning -- This program may not be used in any manner that
 competes with the business of Gaussian, Inc. or will provide
 assistance to any competitor of Gaussian, Inc.  The licensee
 of this program is prohibited from giving any competitor of
 Gaussian, Inc. access to this program.  By using this program,
 the user acknowledges that Gaussian, Inc. is engaged in the
 business of creating and licensing software in the field of
 computational chemistry and represents and warrants to the
 licensee that it is not a competitor of Gaussian, Inc. and that
 it will not use this program in any manner prohibited above.
 ---------------------------------------------------------------
  

 Cite this work as:
 Gaussian 09, Revision D.01,
 M. J. Frisch, G. W. Trucks, H. B. Schlegel, G. E. Scuseria, 
 M. A. Robb, J. R. Cheeseman, G. Scalmani, V. Barone, B. Mennucci, 
 G. A. Petersson, H. Nakatsuji, M. Caricato, X. Li, H. P. Hratchian, 
 A. F. Izmaylov, J. Bloino, G. Zheng, J. L. Sonnenberg, M. Hada, 
 M. Ehara, K. Toyota, R. Fukuda, J. Hasegawa, M. Ishida, T. Nakajima, 
 Y. Honda, O. Kitao, H. Nakai, T. Vreven, J. A. Montgomery, Jr., 
 J. E. Peralta, F. Ogliaro, M. Bearpark, J. J. Heyd, E. Brothers, 
 K. N. Kudin, V. N. Staroverov, T. Keith, R. Kobayashi, J. Normand, 
 K. Raghavachari, A. Rendell, J. C. Burant, S. S. Iyengar, J. Tomasi, 
 M. Cossi, N. Rega, J. M. Millam, M. Klene, J. E. Knox, J. B. Cross, 
 V. Bakken, C. Adamo, J. Jaramillo, R. Gomperts, R. E. Stratmann, 
 O. Yazyev, A. J. Austin, R. Cammi, C. Pomelli, J. W. Ochterski, 
 R. L. Martin, K. Morokuma, V. G. Zakrzewski, G. A. Voth, 
 P. Salvador, J. J. Dannenberg, S. Dapprich, A. D. Daniels, 
 O. Farkas, J. B. Foresman, J. V. Ortiz, J. Cioslowski, 
 and D. J. Fox, Gaussian, Inc., Wallingford CT, 2013.
 
 ******************************************
 Gaussian 09:  EM64L-G09RevD.01 24-Apr-2013
                22-Mar-2015 
 ******************************************
 ----------------------------------------------
 #P Test IOp(2/15=1,5/32=2,5/38=1) B3LYP/6-31G*
 ----------------------------------------------
 1/38=1/1;
 2/12=2,15=1,17=6,18=5,40=1/2;
 3/5=1,6=6,7=1,11=2,16=1,25=1,30=1,74=-5/1,2,3;
 4//1;
 5/5=2,32=2,38=1/2;
 6/7=2,8=2,9=2,10=2,28=1/1;
 99/5=1,9=1/99;
 Leave Link    1 at Sun Mar 22 10:44:23 2015, MaxMem=           0 cpu:         0.0
 (Enter /opt/g09_D01_em64t/g09/l101.exe)
 --------------------------------------------------------
 ch2nh2 iop(9/40=20) Point 3 -- low level on real system.
 --------------------------------------------------------
 Symbolic Z-matrix:
 Charge =  0 Multiplicity = 1
 O                    -0.36871  -2.19424   0. 
 H                     0.59129  -2.19424   0. 
 H                    -0.68916  -1.28931   0. 
 O                    -2.34712   0.34173   0. 
 H                    -1.38712   0.34173   0. 
 H                    -2.66758   1.24666   0. 
 
 NAtoms=      6 NQM=        6 NQMF=       0 NMMI=      0 NMMIF=      0
                NMic=       0 NMicF=      0.
                    Isotopes and Nuclear Properties:
 (Nuclear quadrupole moments (NQMom) in fm**2, nuclear magnetic moments (NMagM)
  in nuclear magnetons)

  Atom         1           2           3           4           5           6
 IAtWgt=          16           1           1          16           1           1
 AtmWgt=  15.9949146   1.0078250   1.0078250  15.9949146   1.0078250   1.0078250
 NucSpn=           0           1           1           0           1           1
 AtZEff=   0.0000000   0.0000000   0.0000000   0.0000000   0.0000000   0.0000000
 NQMom=    0.0000000   0.0000000   0.0000000   0.0000000   0.0000000   0.0000000
 NMagM=    0.0000000   2.7928460   2.7928460   0.0000000   2.7928460   2.7928460
 AtZNuc=   8.0000000   1.0000000   1.0000000   8.0000000   1.0000000   1.0000000
 Leave Link  101 at Sun Mar 22 10:44:23 2015, MaxMem=    33554432 cpu:         0.1
 (Enter /opt/g09_D01_em64t/g09/l202.exe)
                          Input orientation:                          
 ---------------------------------------------------------------------
 Center     Atomic      Atomic             Coordinates (Angstroms)
 Number     Number       Type             X           Y           Z
 ---------------------------------------------------------------------
      1          8           0       -0.368705   -2.194245    0.000000
      2          1           0        0.591295   -2.194245    0.000000
      3          1           0       -0.689160   -1.289309    0.000000
      4          8           0       -2.347122    0.341727    0.000000
      5          1           0       -1.387122    0.341727    0.000000
      6          1           0       -2.667577    1.246662    0.000000
 ---------------------------------------------------------------------
                    Distance matrix (angstroms):
                    1          2          3          4          5
     1  O    0.000000
     2  H    0.960000   0.000000
     3  H    0.960000   1.567952   0.000000
     4  O    3.216409   3.881423   2.325751   0.000000
     5  H    2.732823   3.216409   1.774099   0.960000   0.000000
     6  H    4.138194   4.739207   3.216409   0.960000   1.567952
                    6
     6  H    0.000000
 Symmetry turned off by external request.
 Stoichiometry    H4O2
 Framework group  CS[SG(H4O2)]
 Deg. of freedom     9
 Full point group                 CS      NOp   2
 Rotational constants (GHZ):    416.7917648      5.2904637      5.2241519
 Leave Link  202 at Sun Mar 22 10:44:23 2015, MaxMem=    33554432 cpu:         0.0
 (Enter /opt/g09_D01_em64t/g09/l301.exe)
 Standard basis: 6-31G(d) (6D, 7F)
 Ernie: Thresh=  0.10000D-02 Tol=  0.10000D-05 Strict=F.
    38 basis functions,    72 primitive gaussians,    38 cartesian basis functions
    10 alpha electrons       10 beta electrons
       nuclear repulsion energy        35.0658062478 Hartrees.
 IExCor=  402 DFT=T Ex+Corr=B3LYP ExCW=0 ScaHFX=  0.200000
 ScaDFX=  0.800000  0.720000  1.000000  0.810000 ScalE2=  1.000000  1.000000
 IRadAn=      0 IRanWt=     -1 IRanGd=            0 ICorTp=0 IEmpDi=  4
 NAtoms=    6 NActive=    6 NUniq=    6 SFac= 1.00D+00 NAtFMM=   60 NAOKFM=F Big=F
 Integral buffers will be    131072 words long.
 Raffenetti 2 integral format.
 Two-electron integral symmetry is turned off.
 Leave Link  301 at Sun Mar 22 10:44:23 2015, MaxMem=    33554432 cpu:         0.0
 (Enter /opt/g09_D01_em64t/g09/l302.exe)
 NPDir=0 NMtPBC=     1 NCelOv=     1 NCel=       1 NClECP=     1 NCelD=      1
         NCelK=      1 NCelE2=     1 NClLst=     1 CellRange=     0.0.
 One-electron integrals computed using PRISM.
 NBasis=    38 RedAO= T EigKep=  1.60D-02  NBF=    38
 NBsUse=    38 1.00D-06 EigRej= -1.00D+00 NBFU=    38
 Precomputing XC quadrature grid using
 IXCGrd= 4 IRadAn=           0 IRanWt=          -1 IRanGd=           0 AccXCQ= 0.00D+00.
 Generated NRdTot=       0 NPtTot=           0 NUsed=           0 NTot=          32
 NSgBfM=    38    38    38    38    38 MxSgAt=     6 MxSgA2=     6.
 Leave Link  302 at Sun Mar 22 10:44:23 2015, MaxMem=    33554432 cpu:         0.1
 (Enter /opt/g09_D01_em64t/g09/l303.exe)
 DipDrv:  MaxL=1.
 Leave Link  303 at Sun Mar 22 10:44:23 2015, MaxMem=    33554432 cpu:         0.0
 (Enter /opt/g09_D01_em64t/g09/l401.exe)
 ExpMin= 1.61D-01 ExpMax= 5.48D+03 ExpMxC= 8.25D+02 IAcc=1 IRadAn=         1 AccDes= 0.00D+00
 Harris functional with IExCor=  402 and IRadAn=       1 diagonalized for initial guess.
 HarFok:  IExCor=  402 AccDes= 0.00D+00 IRadAn=         1 IDoV= 1 UseB2=F ITyADJ=14
 ICtDFT=  3500011 ScaDFX=  1.000000  1.000000  1.000000  1.000000
 FoFCou: FMM=F IPFlag=           0 FMFlag=      100000 FMFlg1=           0
         NFxFlg=           0 DoJE=T BraDBF=F KetDBF=T FulRan=T
         wScrn=  0.000000 ICntrl=     500 IOpCl=  0 I1Cent=   200000004 NGrid=           0
         NMat0=    1 NMatS0=      1 NMatT0=    0 NMatD0=    1 NMtDS0=    0 NMtDT0=    0
 Symmetry not used in FoFCou.
 Harris En= -152.889293571786    
 JPrj=0 DoOrth=F DoCkMO=F.
 Leave Link  401 at Sun Mar 22 10:44:23 2015, MaxMem=    33554432 cpu:         0.1
 (Enter /opt/g09_D01_em64t/g09/l502.exe)
 Closed shell SCF:
 Using DIIS extrapolation, IDIIS=  1040.
 Two-electron integral symmetry not used.
 Keep R1 ints in memory in canonical form, NReq=1158771.
 IVT=       23350 IEndB=       23350 NGot=    33554432 MDV=    33256172
 LenX=    33256172 LenY=    33254287
 Requested convergence on RMS density matrix=1.00D-08 within 128 cycles.
 Requested convergence on MAX density matrix=1.00D-06.
 Requested convergence on             energy=1.00D-06.
 No special actions if energy rises.
 FoFCou: FMM=F IPFlag=           0 FMFlag=           0 FMFlg1=           0
         NFxFlg=           0 DoJE=F BraDBF=F KetDBF=F FulRan=T
         wScrn=  0.000000 ICntrl=     600 IOpCl=  0 I1Cent=           0 NGrid=           0
         NMat0=    1 NMatS0=    741 NMatT0=    0 NMatD0=    1 NMtDS0=    0 NMtDT0=    0
 Symmetry not used in FoFCou.

 Cycle   1  Pass 1  IDiag  1:
 E= -152.654678286213    
 DIIS: error= 7.71D-02 at cycle   1 NSaved=   1.
 NSaved= 1 IEnMin= 1 EnMin= -152.654678286213     IErMin= 1 ErrMin= 7.71D-02
 ErrMax= 7.71D-02  0.00D+00 EMaxC= 1.00D-01 BMatC= 2.12D-01 BMatP= 2.12D-01
 IDIUse=3 WtCom= 2.29D-01 WtEn= 7.71D-01
 Coeff-Com:  0.100D+01
 Coeff-En:   0.100D+01
 Coeff:      0.100D+01
 Gap=     0.175 Goal=   None    Shift=    0.000
 GapD=    0.175 DampG=1.000 DampE=0.500 DampFc=0.5000 IDamp=-1.
 Damping current iteration by 5.00D-01
 RMSDP=2.22D-02 MaxDP=2.60D-01              OVMax= 2.03D-01

 Cycle   2  Pass 1  IDiag  1:
 E= -152.709120703218     Delta-E=       -0.054442417005 Rises=F Damp=T
 DIIS: error= 1.90D-02 at cycle   2 NSaved=   2.
 NSaved= 2 IEnMin= 2 EnMin= -152.709120703218     IErMin= 2 ErrMin= 1.90D-02
 ErrMax= 1.90D-02  0.00D+00 EMaxC= 1.00D-01 BMatC= 1.26D-02 BMatP= 2.12D-01
 IDIUse=3 WtCom= 8.10D-01 WtEn= 1.90D-01
 Coeff-Com:  0.180D+00 0.820D+00
 Coeff-En:   0.296D+00 0.704D+00
 Coeff:      0.202D+00 0.798D+00
 Gap=     0.296 Goal=   None    Shift=    0.000
 RMSDP=2.82D-03 MaxDP=4.59D-02 DE=-5.44D-02 OVMax= 1.16D-01

 Cycle   3  Pass 1  IDiag  1:
 E= -152.811867328405     Delta-E=       -0.102746625188 Rises=F Damp=F
 DIIS: error= 3.12D-03 at cycle   3 NSaved=   3.
 NSaved= 3 IEnMin= 3 EnMin= -152.811867328405     IErMin= 3 ErrMin= 3.12D-03
 ErrMax= 3.12D-03  0.00D+00 EMaxC= 1.00D-01 BMatC= 3.80D-04 BMatP= 1.26D-02
 IDIUse=3 WtCom= 9.69D-01 WtEn= 3.12D-02
 Coeff-Com:  0.374D-01-0.765D-02 0.970D+00
 Coeff-En:   0.000D+00 0.000D+00 0.100D+01
 Coeff:      0.362D-01-0.741D-02 0.971D+00
 Gap=     0.310 Goal=   None    Shift=    0.000
 RMSDP=3.59D-04 MaxDP=4.81D-03 DE=-1.03D-01 OVMax= 3.21D-03

 Cycle   4  Pass 1  IDiag  1:
 E= -152.812124875581     Delta-E=       -0.000257547175 Rises=F Damp=F
 DIIS: error= 3.13D-04 at cycle   4 NSaved=   4.
 NSaved= 4 IEnMin= 4 EnMin= -152.812124875581     IErMin= 4 ErrMin= 3.13D-04
 ErrMax= 3.13D-04  0.00D+00 EMaxC= 1.00D-01 BMatC= 4.97D-06 BMatP= 3.80D-04
 IDIUse=3 WtCom= 9.97D-01 WtEn= 3.13D-03
 Coeff-Com:  0.644D-02-0.170D-01 0.227D+00 0.784D+00
 Coeff-En:   0.000D+00 0.000D+00 0.000D+00 0.100D+01
 Coeff:      0.642D-02-0.169D-01 0.226D+00 0.785D+00
 Gap=     0.311 Goal=   None    Shift=    0.000
 RMSDP=4.14D-05 MaxDP=4.51D-04 DE=-2.58D-04 OVMax= 4.08D-04

 Cycle   5  Pass 1  IDiag  1:
 E= -152.812127940582     Delta-E=       -0.000003065002 Rises=F Damp=F
 DIIS: error= 1.39D-04 at cycle   5 NSaved=   5.
 NSaved= 5 IEnMin= 5 EnMin= -152.812127940582     IErMin= 5 ErrMin= 1.39D-04
 ErrMax= 1.39D-04  0.00D+00 EMaxC= 1.00D-01 BMatC= 7.17D-07 BMatP= 4.97D-06
 IDIUse=3 WtCom= 9.99D-01 WtEn= 1.39D-03
 Coeff-Com:  0.332D-02-0.920D-02 0.111D+00 0.418D+00 0.477D+00
 Coeff-En:   0.000D+00 0.000D+00 0.000D+00 0.000D+00 0.100D+01
 Coeff:      0.332D-02-0.918D-02 0.111D+00 0.417D+00 0.478D+00
 Gap=     0.311 Goal=   None    Shift=    0.000
 RMSDP=1.62D-05 MaxDP=1.86D-04 DE=-3.07D-06 OVMax= 1.65D-04

 Cycle   6  Pass 1  IDiag  1:
 E= -152.812128418673     Delta-E=       -0.000000478090 Rises=F Damp=F
 DIIS: error= 2.67D-05 at cycle   6 NSaved=   6.
 NSaved= 6 IEnMin= 6 EnMin= -152.812128418673     IErMin= 6 ErrMin= 2.67D-05
 ErrMax= 2.67D-05  0.00D+00 EMaxC= 1.00D-01 BMatC= 3.28D-08 BMatP= 7.17D-07
 IDIUse=1 WtCom= 1.00D+00 WtEn= 0.00D+00
 Coeff-Com:  0.273D-03-0.146D-03-0.991D-03-0.413D-02 0.118D+00 0.887D+00
 Coeff:      0.273D-03-0.146D-03-0.991D-03-0.413D-02 0.118D+00 0.887D+00
 Gap=     0.311 Goal=   None    Shift=    0.000
 RMSDP=3.57D-06 MaxDP=5.07D-05 DE=-4.78D-07 OVMax= 4.22D-05

 Cycle   7  Pass 1  IDiag  1:
 E= -152.812128442335     Delta-E=       -0.000000023662 Rises=F Damp=F
 DIIS: error= 3.69D-07 at cycle   7 NSaved=   7.
 NSaved= 7 IEnMin= 7 EnMin= -152.812128442335     IErMin= 7 ErrMin= 3.69D-07
 ErrMax= 3.69D-07  0.00D+00 EMaxC= 1.00D-01 BMatC= 5.89D-12 BMatP= 3.28D-08
 IDIUse=1 WtCom= 1.00D+00 WtEn= 0.00D+00
 Coeff-Com: -0.115D-04 0.162D-04-0.313D-03-0.104D-02-0.176D-02 0.191D-02
 Coeff-Com:  0.100D+01
 Coeff:     -0.115D-04 0.162D-04-0.313D-03-0.104D-02-0.176D-02 0.191D-02
 Coeff:      0.100D+01
 Gap=     0.311 Goal=   None    Shift=    0.000
 RMSDP=1.02D-07 MaxDP=8.57D-07 DE=-2.37D-08 OVMax= 1.17D-06

 Cycle   8  Pass 1  IDiag  1:
 E= -152.812128442343     Delta-E=       -0.000000000008 Rises=F Damp=F
 DIIS: error= 1.42D-07 at cycle   8 NSaved=   8.
 NSaved= 8 IEnMin= 8 EnMin= -152.812128442343     IErMin= 8 ErrMin= 1.42D-07
 ErrMax= 1.42D-07  0.00D+00 EMaxC= 1.00D-01 BMatC= 7.81D-13 BMatP= 5.89D-12
 IDIUse=1 WtCom= 1.00D+00 WtEn= 0.00D+00
 Coeff-Com: -0.536D-05 0.588D-05-0.853D-04-0.240D-03-0.141D-02-0.601D-02
 Coeff-Com:  0.275D+00 0.733D+00
 Coeff:     -0.536D-05 0.588D-05-0.853D-04-0.240D-03-0.141D-02-0.601D-02
 Coeff:      0.275D+00 0.733D+00
 Gap=     0.311 Goal=   None    Shift=    0.000
 RMSDP=2.15D-08 MaxDP=1.93D-07 DE=-8.13D-12 OVMax= 3.13D-07

 Cycle   9  Pass 1  IDiag  1:
 E= -152.812128442343     Delta-E=        0.000000000000 Rises=F Damp=F
 DIIS: error= 1.23D-08 at cycle   9 NSaved=   9.
 NSaved= 9 IEnMin= 9 EnMin= -152.812128442343     IErMin= 9 ErrMin= 1.23D-08
 ErrMax= 1.23D-08  0.00D+00 EMaxC= 1.00D-01 BMatC= 6.72D-15 BMatP= 7.81D-13
 IDIUse=1 WtCom= 1.00D+00 WtEn= 0.00D+00
 Coeff-Com: -0.409D-06 0.424D-06-0.358D-05 0.371D-05-0.150D-03-0.901D-03
 Coeff-Com:  0.372D-02 0.751D-01 0.922D+00
 Coeff:     -0.409D-06 0.424D-06-0.358D-05 0.371D-05-0.150D-03-0.901D-03
 Coeff:      0.372D-02 0.751D-01 0.922D+00
 Gap=     0.311 Goal=   None    Shift=    0.000
 RMSDP=2.43D-09 MaxDP=1.59D-08 DE=-1.71D-13 OVMax= 2.78D-08

 SCF Done:  E(RB3LYP) =  -152.812128442     A.U. after    9 cycles
            NFock=  9  Conv=0.24D-08     -V/T= 2.0074
 KE= 1.516892841929D+02 PE=-4.311717351394D+02 EE= 9.160451625637D+01
 Leave Link  502 at Sun Mar 22 10:44:25 2015, MaxMem=    33554432 cpu:         1.8
 (Enter /opt/g09_D01_em64t/g09/l601.exe)
 Copying SCF densities to generalized density rwf, IOpCl= 0 IROHF=0.

 **********************************************************************

            Population analysis using the SCF density.

 **********************************************************************

 Alpha  occ. eigenvalues --  -19.15082 -19.13328  -1.01509  -0.99623  -0.55757
 Alpha  occ. eigenvalues --   -0.52265  -0.37797  -0.35981  -0.30636  -0.28857
 Alpha virt. eigenvalues --    0.02211   0.09510   0.13444   0.24550   0.77885
 Alpha virt. eigenvalues --    0.82196   0.82681   0.86206   0.87106   0.89718
 Alpha virt. eigenvalues --    0.90001   0.93333   1.05258   1.09955   1.18182
 Alpha virt. eigenvalues --    1.41718   1.72225   1.74186   1.74249   1.74955
 Alpha virt. eigenvalues --    1.76960   1.78644   2.27996   2.32038   2.59381
 Alpha virt. eigenvalues --    2.60670   3.55568   3.66601
          Condensed to atoms (all electrons):
               1          2          3          4          5          6
     1  O    8.304942   0.245134   0.235901  -0.002692   0.002172   0.000122
     2  H    0.245134   0.387610  -0.021379  -0.000060   0.000415  -0.000003
     3  H    0.235901  -0.021379   0.378927   0.013983   0.002182  -0.001050
     4  O   -0.002692  -0.000060   0.013983   8.310938   0.210203   0.244167
     5  H    0.002172   0.000415   0.002182   0.210203   0.417684  -0.012413
     6  H    0.000122  -0.000003  -0.001050   0.244167  -0.012413   0.366531
 Mulliken charges:
               1
     1  O   -0.785579
     2  H    0.388282
     3  H    0.391436
     4  O   -0.776540
     5  H    0.379756
     6  H    0.402645
 Sum of Mulliken charges =   0.00000
 Mulliken charges with hydrogens summed into heavy atoms:
               1
     1  O   -0.005861
     4  O    0.005861
 Electronic spatial extent (au):  <R**2>=            400.1159
 Charge=              0.0000 electrons
 Dipole moment (field-independent basis, Debye):
    X=              2.1047    Y=              3.2853    Z=              0.0000  Tot=              3.9016
 Quadrupole moment (field-independent basis, Debye-Ang):
   XX=            -14.7527   YY=            -16.1283   ZZ=            -14.3649
   XY=             -8.2445   XZ=              0.0000   YZ=              0.0000
 Traceless Quadrupole moment (field-independent basis, Debye-Ang):
   XX=              0.3293   YY=             -1.0464   ZZ=              0.7171
   XY=             -8.2445   XZ=              0.0000   YZ=              0.0000
 Octapole moment (field-independent basis, Debye-Ang**2):
  XXX=             56.0266  YYY=             52.7631  ZZZ=              0.0000  XYY=             20.5450
  XXY=             22.0826  XXZ=              0.0000  XZZ=             18.8907  YZZ=             12.5203
  YYZ=              0.0000  XYZ=              0.0000
 Hexadecapole moment (field-independent basis, Debye-Ang**3):
 XXXX=           -226.3686 YYYY=           -231.2636 ZZZZ=            -10.3880 XXXY=            -29.8164
 XXXZ=              0.0000 YYYX=            -30.4579 YYYZ=              0.0000 ZZZX=              0.0000
 ZZZY=              0.0000 XXYY=            -49.5858 XXZZ=            -42.9399 YYZZ=            -37.9137
 XXYZ=              0.0000 YYXZ=              0.0000 ZZXY=              1.6607
 N-N= 3.506580624783D+01 E-N=-4.311717350750D+02  KE= 1.516892841929D+02
 No NMR shielding tensors so no spin-rotation constants.
 Leave Link  601 at Sun Mar 22 10:44:25 2015, MaxMem=    33554432 cpu:         0.1
 (Enter /opt/g09_D01_em64t/g09/l9999.exe)

 Test job not archived.
 1\1\GINC-EAM\SP\RB3LYP\6-31G(d)\H4O2\DULIKAI\22-Mar-2015\0\\#P Test IO
 p(2/15=1,5/32=2,5/38=1) B3LYP/6-31G*\\ch2nh2 iop(9/40=20) Point 3 -- l
 ow level on real system.\\0,1\O,0,-0.36870503,-2.19424457,0.\H,0,0.591
 29497,-2.19424457,0.\H,0,-0.68915962,-1.28930874,0.\O,0,-2.34712227,0.
 34172661,0.\H,0,-1.38712227,0.34172661,0.\H,0,-2.66757686,1.24666244,0
 .\\Version=EM64L-G09RevD.01\HF=-152.8121284\RMSD=2.432e-09\Dipole=0.82
 80432,1.2925197,0.\Quadrupole=0.244819,-0.7779486,0.5331296,-6.1295833
 ,0.,0.\PG=CS [SG(H4O2)]\\@


 The mind is not a vessel to be filled but a fire to be kindled.
                                  -- Plutarch
 Job cpu time:       0 days  0 hours  0 minutes  2.3 seconds.
 File lengths (MBytes):  RWF=      5 Int=      0 D2E=      0 Chk=      1 Scr=      1
 Normal termination of Gaussian 09 at Sun Mar 22 10:44:25 2015.
