 Entering Gaussian System, Link 0=g09
 Input=qm2.gjf
 Output=qm2.log
 Initial command:
 /opt/g09_D01_em64t/g09/l1.exe "/tmp/Gau-24404.inp" -scrdir="/tmp/"
 Entering Link 1 = /opt/g09_D01_em64t/g09/l1.exe PID=     24405.
  
 Copyright (c) 1988,1990,1992,1993,1995,1998,2003,2009,2013,
            Gaussian, Inc.  All Rights Reserved.
  
 This is part of the Gaussian(R) 09 program.  It is based on
 the Gaussian(R) 03 system (copyright 2003, Gaussian, Inc.),
 the Gaussian(R) 98 system (copyright 1998, Gaussian, Inc.),
 the Gaussian(R) 94 system (copyright 1995, Gaussian, Inc.),
 the Gaussian 92(TM) system (copyright 1992, Gaussian, Inc.),
 the Gaussian 90(TM) system (copyright 1990, Gaussian, Inc.),
 the Gaussian 88(TM) system (copyright 1988, Gaussian, Inc.),
 the Gaussian 86(TM) system (copyright 1986, Carnegie Mellon
 University), and the Gaussian 82(TM) system (copyright 1983,
 Carnegie Mellon University). Gaussian is a federally registered
 trademark of Gaussian, Inc.
  
 This software contains proprietary and confidential information,
 including trade secrets, belonging to Gaussian, Inc.
  
 This software is provided under written license and may be
 used, copied, transmitted, or stored only in accord with that
 written license.
  
 The following legend is applicable only to US Government
 contracts under FAR:
  
                    RESTRICTED RIGHTS LEGEND
  
 Use, reproduction and disclosure by the US Government is
 subject to restrictions as set forth in subparagraphs (a)
 and (c) of the Commercial Computer Software - Restricted
 Rights clause in FAR 52.227-19.
  
 Gaussian, Inc.
 340 Quinnipiac St., Bldg. 40, Wallingford CT 06492
  
  
 ---------------------------------------------------------------
 Warning -- This program may not be used in any manner that
 competes with the business of Gaussian, Inc. or will provide
 assistance to any competitor of Gaussian, Inc.  The licensee
 of this program is prohibited from giving any competitor of
 Gaussian, Inc. access to this program.  By using this program,
 the user acknowledges that Gaussian, Inc. is engaged in the
 business of creating and licensing software in the field of
 computational chemistry and represents and warrants to the
 licensee that it is not a competitor of Gaussian, Inc. and that
 it will not use this program in any manner prohibited above.
 ---------------------------------------------------------------
  

 Cite this work as:
 Gaussian 09, Revision D.01,
 M. J. Frisch, G. W. Trucks, H. B. Schlegel, G. E. Scuseria, 
 M. A. Robb, J. R. Cheeseman, G. Scalmani, V. Barone, B. Mennucci, 
 G. A. Petersson, H. Nakatsuji, M. Caricato, X. Li, H. P. Hratchian, 
 A. F. Izmaylov, J. Bloino, G. Zheng, J. L. Sonnenberg, M. Hada, 
 M. Ehara, K. Toyota, R. Fukuda, J. Hasegawa, M. Ishida, T. Nakajima, 
 Y. Honda, O. Kitao, H. Nakai, T. Vreven, J. A. Montgomery, Jr., 
 J. E. Peralta, F. Ogliaro, M. Bearpark, J. J. Heyd, E. Brothers, 
 K. N. Kudin, V. N. Staroverov, T. Keith, R. Kobayashi, J. Normand, 
 K. Raghavachari, A. Rendell, J. C. Burant, S. S. Iyengar, J. Tomasi, 
 M. Cossi, N. Rega, J. M. Millam, M. Klene, J. E. Knox, J. B. Cross, 
 V. Bakken, C. Adamo, J. Jaramillo, R. Gomperts, R. E. Stratmann, 
 O. Yazyev, A. J. Austin, R. Cammi, C. Pomelli, J. W. Ochterski, 
 R. L. Martin, K. Morokuma, V. G. Zakrzewski, G. A. Voth, 
 P. Salvador, J. J. Dannenberg, S. Dapprich, A. D. Daniels, 
 O. Farkas, J. B. Foresman, J. V. Ortiz, J. Cioslowski, 
 and D. J. Fox, Gaussian, Inc., Wallingford CT, 2013.
 
 ******************************************
 Gaussian 09:  EM64L-G09RevD.01 24-Apr-2013
                22-Mar-2015 
 ******************************************
 ----------------------------------------------------------------------
 #P Test IOp(2/15=1,5/32=2,5/38=1) B3LYP/6-31G(D,P) TD(SINGLET,NSTATES=
 3,ROOT=1)
 ----------------------------------------------------------------------
 1/38=1/1;
 2/12=2,15=1,17=6,18=5,40=1/2;
 3/5=1,6=6,7=101,11=9,16=1,25=1,30=1,74=-5/1,2,8,3;
 4//1;
 5/5=2,32=2,38=1/2;
 8/6=1,10=2,107=1,108=3/1;
 9/8=1,41=3,42=1,48=1,70=2/14;
 6/7=2,8=2,9=2,10=2/1;
 99/5=1,9=1/99;
 Leave Link    1 at Sun Mar 22 10:45:01 2015, MaxMem=           0 cpu:         0.0
 (Enter /opt/g09_D01_em64t/g09/l101.exe)
 ----------------------------------------------------------
 ch2nh2 iop(9/40=20) Point 2 -- high level on model system.
 ----------------------------------------------------------
 Symbolic Z-matrix:
 Charge =  0 Multiplicity = 1
 O                    -0.36871  -2.19424   0. 
 H                     0.59129  -2.19424   0. 
 H                    -0.68916  -1.28931   0. 
 O-#6                 -2.34712   0.34173   0. 
 H-#6                 -1.38712   0.34173   0. 
 H-#6                 -2.66758   1.24666   0. 
 
 NAtoms=      6 NQM=        6 NQMF=       0 NMMI=      0 NMMIF=      0
                NMic=       0 NMicF=      0.
                    Isotopes and Nuclear Properties:
 (Nuclear quadrupole moments (NQMom) in fm**2, nuclear magnetic moments (NMagM)
  in nuclear magnetons)

  Atom         1           2           3           4           5           6
 IAtWgt=          16           1           1          16           1           1
 AtmWgt=  15.9949146   1.0078250   1.0078250  15.9949146   1.0078250   1.0078250
 NucSpn=           0           1           1           0           1           1
 AtZEff=   0.0000000   0.0000000   0.0000000   0.0000000   0.0000000   0.0000000
 NQMom=    0.0000000   0.0000000   0.0000000   0.0000000   0.0000000   0.0000000
 NMagM=    0.0000000   2.7928460   2.7928460   0.0000000   2.7928460   2.7928460
 AtZNuc=   8.0000000   1.0000000   1.0000000   8.0000000   1.0000000   1.0000000
 Leave Link  101 at Sun Mar 22 10:45:01 2015, MaxMem=    33554432 cpu:         0.1
 (Enter /opt/g09_D01_em64t/g09/l202.exe)
                          Input orientation:                          
 ---------------------------------------------------------------------
 Center     Atomic      Atomic             Coordinates (Angstroms)
 Number     Number       Type             X           Y           Z
 ---------------------------------------------------------------------
      1          8           0       -0.368705   -2.194245    0.000000
      2          1           0        0.591295   -2.194245    0.000000
      3          1           0       -0.689160   -1.289309    0.000000
      4          8           6       -2.347122    0.341727    0.000000
      5          1           6       -1.387122    0.341727    0.000000
      6          1           6       -2.667577    1.246662    0.000000
 ---------------------------------------------------------------------
                    Distance matrix (angstroms):
                    1          2          3          4          5
     1  O    0.000000
     2  H    0.960000   0.000000
     3  H    0.960000   1.567952   0.000000
     4  O    3.216409   3.881423   2.325751   0.000000
     5  H    2.732823   3.216409   1.774099   0.960000   0.000000
     6  H    4.138194   4.739207   3.216409   0.960000   1.567952
                    6
     6  H    0.000000
 Symmetry turned off by external request.
 Stoichiometry    H4O2
 Framework group  CS[SG(H4O2)]
 Deg. of freedom     9
 Full point group                 CS      NOp   2
 Rotational constants (GHZ):    416.7917648      5.2904637      5.2241519
 Leave Link  202 at Sun Mar 22 10:45:01 2015, MaxMem=    33554432 cpu:         0.0
 (Enter /opt/g09_D01_em64t/g09/l301.exe)
 Standard basis: 6-31G(d,p) (6D, 7F)
 Ernie: Thresh=  0.10000D-02 Tol=  0.10000D-05 Strict=F.
    25 basis functions,    42 primitive gaussians,    25 cartesian basis functions
     5 alpha electrons        5 beta electrons
       nuclear repulsion energy         9.1571159831 Hartrees.
 IExCor=  402 DFT=T Ex+Corr=B3LYP ExCW=0 ScaHFX=  0.200000
 ScaDFX=  0.800000  0.720000  1.000000  0.810000 ScalE2=  1.000000  1.000000
 IRadAn=      0 IRanWt=     -1 IRanGd=            0 ICorTp=0 IEmpDi=  4
 NAtoms=    6 NActive=    3 NUniq=    3 SFac= 1.00D+00 NAtFMM=   60 NAOKFM=F Big=F
 Integral buffers will be    131072 words long.
 Regular integral format.
 Two-electron integral symmetry is turned off.
 Leave Link  301 at Sun Mar 22 10:45:01 2015, MaxMem=    33554432 cpu:         0.0
 (Enter /opt/g09_D01_em64t/g09/l302.exe)
 NPDir=0 NMtPBC=     1 NCelOv=     1 NCel=       1 NClECP=     1 NCelD=      1
         NCelK=      1 NCelE2=     1 NClLst=     1 CellRange=     0.0.
 One-electron integrals computed using PRISM.
 NBasis=    25 RedAO= T EigKep=  2.21D-02  NBF=    25
 NBsUse=    25 1.00D-06 EigRej= -1.00D+00 NBFU=    25
 Precomputing XC quadrature grid using
 IXCGrd= 4 IRadAn=           0 IRanWt=          -1 IRanGd=           0 AccXCQ= 0.00D+00.
 Generated NRdTot=       0 NPtTot=           0 NUsed=           0 NTot=          32
 NSgBfM=    25    25    25    25    25 MxSgAt=     3 MxSgA2=     3.
 Leave Link  302 at Sun Mar 22 10:45:01 2015, MaxMem=    33554432 cpu:         0.1
 (Enter /opt/g09_D01_em64t/g09/l308.exe)
 Leave Link  308 at Sun Mar 22 10:45:01 2015, MaxMem=    33554432 cpu:         0.0
 (Enter /opt/g09_D01_em64t/g09/l303.exe)
 DipDrv:  MaxL=1.
 Leave Link  303 at Sun Mar 22 10:45:02 2015, MaxMem=    33554432 cpu:         0.0
 (Enter /opt/g09_D01_em64t/g09/l401.exe)
 ExpMin= 1.61D-01 ExpMax= 5.48D+03 ExpMxC= 8.25D+02 IAcc=1 IRadAn=         1 AccDes= 0.00D+00
 Harris functional with IExCor=  402 and IRadAn=       1 diagonalized for initial guess.
 HarFok:  IExCor=  402 AccDes= 0.00D+00 IRadAn=         1 IDoV= 1 UseB2=F ITyADJ=14
 ICtDFT=  3500011 ScaDFX=  1.000000  1.000000  1.000000  1.000000
 FoFCou: FMM=F IPFlag=           0 FMFlag=      100000 FMFlg1=           0
         NFxFlg=           0 DoJE=T BraDBF=F KetDBF=T FulRan=T
         wScrn=  0.000000 ICntrl=     500 IOpCl=  0 I1Cent=   200000004 NGrid=           0
         NMat0=    1 NMatS0=      1 NMatT0=    0 NMatD0=    1 NMtDS0=    0 NMtDT0=    0
 Symmetry not used in FoFCou.
 Harris En= -76.4587214585236    
 JPrj=0 DoOrth=F DoCkMO=F.
 Leave Link  401 at Sun Mar 22 10:45:02 2015, MaxMem=    33554432 cpu:         0.1
 (Enter /opt/g09_D01_em64t/g09/l502.exe)
 Closed shell SCF:
 Using DIIS extrapolation, IDIIS=  1040.
 Two-electron integral symmetry not used.
 Keep R1 ints in memory in canonical form, NReq=933384.
 IVT=       20737 IEndB=       20737 NGot=    33554432 MDV=    33480721
 LenX=    33480721 LenY=    33479655
 Requested convergence on RMS density matrix=1.00D-08 within 128 cycles.
 Requested convergence on MAX density matrix=1.00D-06.
 Requested convergence on             energy=1.00D-06.
 No special actions if energy rises.
 FoFCou: FMM=F IPFlag=           0 FMFlag=           0 FMFlg1=           0
         NFxFlg=           0 DoJE=F BraDBF=F KetDBF=F FulRan=T
         wScrn=  0.000000 ICntrl=     600 IOpCl=  0 I1Cent=           0 NGrid=           0
         NMat0=    1 NMatS0=    325 NMatT0=    0 NMatD0=    1 NMtDS0=    0 NMtDT0=    0
 Symmetry not used in FoFCou.

 Cycle   1  Pass 1  IDiag  1:
 E= -76.3402768023321    
 DIIS: error= 6.03D-02 at cycle   1 NSaved=   1.
 NSaved= 1 IEnMin= 1 EnMin= -76.3402768023321     IErMin= 1 ErrMin= 6.03D-02
 ErrMax= 6.03D-02  0.00D+00 EMaxC= 1.00D-01 BMatC= 1.07D-01 BMatP= 1.07D-01
 IDIUse=3 WtCom= 3.97D-01 WtEn= 6.03D-01
 Coeff-Com:  0.100D+01
 Coeff-En:   0.100D+01
 Coeff:      0.100D+01
 Gap=     0.214 Goal=   None    Shift=    0.000
 GapD=    0.214 DampG=1.000 DampE=0.500 DampFc=0.5000 IDamp=-1.
 Damping current iteration by 5.00D-01
 RMSDP=2.20D-02 MaxDP=2.19D-01              OVMax= 1.98D-01

 Cycle   2  Pass 1  IDiag  1:
 E= -76.3676042473681     Delta-E=       -0.027327445036 Rises=F Damp=T
 DIIS: error= 1.29D-02 at cycle   2 NSaved=   2.
 NSaved= 2 IEnMin= 2 EnMin= -76.3676042473681     IErMin= 2 ErrMin= 1.29D-02
 ErrMax= 1.29D-02  0.00D+00 EMaxC= 1.00D-01 BMatC= 6.17D-03 BMatP= 1.07D-01
 IDIUse=3 WtCom= 8.71D-01 WtEn= 1.29D-01
 Coeff-Com:  0.179D+00 0.821D+00
 Coeff-En:   0.294D+00 0.706D+00
 Coeff:      0.194D+00 0.806D+00
 Gap=     0.345 Goal=   None    Shift=    0.000
 RMSDP=2.68D-03 MaxDP=3.68D-02 DE=-2.73D-02 OVMax= 1.14D-01

 Cycle   3  Pass 1  IDiag  1:
 E= -76.4188622696965     Delta-E=       -0.051258022328 Rises=F Damp=F
 DIIS: error= 1.60D-03 at cycle   3 NSaved=   3.
 NSaved= 3 IEnMin= 3 EnMin= -76.4188622696965     IErMin= 3 ErrMin= 1.60D-03
 ErrMax= 1.60D-03  0.00D+00 EMaxC= 1.00D-01 BMatC= 1.01D-04 BMatP= 6.17D-03
 IDIUse=3 WtCom= 9.84D-01 WtEn= 1.60D-02
 Coeff-Com:  0.271D-01-0.698D-03 0.974D+00
 Coeff-En:   0.000D+00 0.000D+00 0.100D+01
 Coeff:      0.266D-01-0.687D-03 0.974D+00
 Gap=     0.357 Goal=   None    Shift=    0.000
 RMSDP=2.37D-04 MaxDP=2.57D-03 DE=-5.13D-02 OVMax= 2.18D-03

 Cycle   4  Pass 1  IDiag  1:
 E= -76.4189280097592     Delta-E=       -0.000065740063 Rises=F Damp=F
 DIIS: error= 2.78D-04 at cycle   4 NSaved=   4.
 NSaved= 4 IEnMin= 4 EnMin= -76.4189280097592     IErMin= 4 ErrMin= 2.78D-04
 ErrMax= 2.78D-04  0.00D+00 EMaxC= 1.00D-01 BMatC= 2.54D-06 BMatP= 1.01D-04
 IDIUse=3 WtCom= 9.97D-01 WtEn= 2.78D-03
 Coeff-Com:  0.481D-02-0.155D-01 0.223D+00 0.787D+00
 Coeff-En:   0.000D+00 0.000D+00 0.000D+00 0.100D+01
 Coeff:      0.480D-02-0.155D-01 0.223D+00 0.788D+00
 Gap=     0.357 Goal=   None    Shift=    0.000
 RMSDP=2.94D-05 MaxDP=2.47D-04 DE=-6.57D-05 OVMax= 3.19D-04

 Cycle   5  Pass 1  IDiag  1:
 E= -76.4189298050953     Delta-E=       -0.000001795336 Rises=F Damp=F
 DIIS: error= 3.82D-05 at cycle   5 NSaved=   5.
 NSaved= 5 IEnMin= 5 EnMin= -76.4189298050953     IErMin= 5 ErrMin= 3.82D-05
 ErrMax= 3.82D-05  0.00D+00 EMaxC= 1.00D-01 BMatC= 4.17D-08 BMatP= 2.54D-06
 IDIUse=1 WtCom= 1.00D+00 WtEn= 0.00D+00
 Coeff-Com:  0.588D-03-0.610D-03 0.300D-02 0.104D-01 0.987D+00
 Coeff:      0.588D-03-0.610D-03 0.300D-02 0.104D-01 0.987D+00
 Gap=     0.358 Goal=   None    Shift=    0.000
 RMSDP=6.01D-06 MaxDP=7.13D-05 DE=-1.80D-06 OVMax= 4.84D-05

 Cycle   6  Pass 1  IDiag  1:
 E= -76.4189298358037     Delta-E=       -0.000000030708 Rises=F Damp=F
 DIIS: error= 5.70D-07 at cycle   6 NSaved=   6.
 NSaved= 6 IEnMin= 6 EnMin= -76.4189298358037     IErMin= 6 ErrMin= 5.70D-07
 ErrMax= 5.70D-07  0.00D+00 EMaxC= 1.00D-01 BMatC= 5.91D-12 BMatP= 4.17D-08
 IDIUse=1 WtCom= 1.00D+00 WtEn= 0.00D+00
 Coeff-Com: -0.311D-04 0.371D-04-0.559D-03-0.223D-02-0.357D-01 0.104D+01
 Coeff:     -0.311D-04 0.371D-04-0.559D-03-0.223D-02-0.357D-01 0.104D+01
 Gap=     0.358 Goal=   None    Shift=    0.000
 RMSDP=1.31D-07 MaxDP=1.61D-06 DE=-3.07D-08 OVMax= 1.31D-06

 Cycle   7  Pass 1  IDiag  1:
 E= -76.4189298358123     Delta-E=       -0.000000000009 Rises=F Damp=F
 DIIS: error= 3.39D-08 at cycle   7 NSaved=   7.
 NSaved= 7 IEnMin= 7 EnMin= -76.4189298358123     IErMin= 7 ErrMin= 3.39D-08
 ErrMax= 3.39D-08  0.00D+00 EMaxC= 1.00D-01 BMatC= 2.87D-14 BMatP= 5.91D-12
 IDIUse=1 WtCom= 1.00D+00 WtEn= 0.00D+00
 Coeff-Com: -0.919D-06 0.728D-06-0.263D-05 0.972D-04-0.156D-02-0.276D-01
 Coeff-Com:  0.103D+01
 Coeff:     -0.919D-06 0.728D-06-0.263D-05 0.972D-04-0.156D-02-0.276D-01
 Coeff:      0.103D+01
 Gap=     0.358 Goal=   None    Shift=    0.000
 RMSDP=5.95D-09 MaxDP=4.15D-08 DE=-8.63D-12 OVMax= 6.00D-08

 SCF Done:  E(RB3LYP) =  -76.4189298358     A.U. after    7 cycles
            NFock=  7  Conv=0.59D-08     -V/T= 2.0077
 KE= 7.583270069282D+01 PE=-1.989439789020D+02 EE= 3.753523239026D+01
 Leave Link  502 at Sun Mar 22 10:45:02 2015, MaxMem=    33554432 cpu:         0.6
 (Enter /opt/g09_D01_em64t/g09/l801.exe)
 DoSCS=F DFT=T ScalE2(SS,OS)=  1.000000  1.000000
 ExpMin= 1.61D-01 ExpMax= 5.48D+03 ExpMxC= 8.25D+02 IAcc=3 IRadAn=         5 AccDes= 0.00D+00
 HarFok:  IExCor=  205 AccDes= 0.00D+00 IRadAn=         5 IDoV=-2 UseB2=F ITyADJ=14
 ICtDFT= 12500011 ScaDFX=  1.000000  1.000000  1.000000  1.000000
 Largest valence mixing into a core orbital is  2.73D-05
 Largest core mixing into a valence orbital is  6.18D-06
 Range of M.O.s used for correlation:     2    25
 NBasis=    25 NAE=     5 NBE=     5 NFC=     1 NFV=     0
 NROrb=     24 NOA=     4 NOB=     4 NVA=    20 NVB=    20
 Leave Link  801 at Sun Mar 22 10:45:02 2015, MaxMem=    33554432 cpu:         0.1
 (Enter /opt/g09_D01_em64t/g09/l914.exe)
 RHF ground state
 MDV=    33554432 DFT=T DoStab=F Mixed=T DoRPA=T DoScal=F NonHer=T
 Keep R1, R2, and R3 ints in memory in canonical form, NReq=1106670.
 FoFCou: FMM=F IPFlag=           0 FMFlag=           0 FMFlg1=           0
         NFxFlg=           0 DoJE=F BraDBF=F KetDBF=F FulRan=T
         wScrn=  0.000000 ICntrl=     600 IOpCl=  0 I1Cent=           0 NGrid=           0
         NMat0=    1 NMatS0=    325 NMatT0=    0 NMatD0=    1 NMtDS0=    0 NMtDT0=    0
 Symmetry not used in FoFCou.
 Making orbital integer symmetry assigments:
    12 initial guesses have been made.
 Convergence on wavefunction:    0.001000000000000
 Davidson Disk Diagonalization:  ConvIn= 1.00D-03 SkipCon=T Conv= 1.00D-03.
 Max sub-space:   200 roots to seek:    12 dimension of matrix:          160
 Iteration     1 Dimension    12 NMult     0 NNew     12
 CISAX will form    12 AO SS matrices at one time.
 NMat=    12 NSing=    12 JSym2X= 0.
 New state      2 was old state      3
 New state      3 was old state      2
 Excitation Energies [eV] at current iteration:
 Root      1 :     8.086579238504243
 Root      2 :    10.127481121253200
 Root      3 :    10.365721297172800
 Root      4 :    12.584194016915670
 Root      5 :    14.974452489123420
 Root      6 :    19.018280639605120
 Root      7 :    26.707923229903010
 Root      8 :    27.674609205446000
 Root      9 :    28.119444577501320
 Root     10 :    29.580307236636650
 Root     11 :    31.051575875177360
 Root     12 :    31.810641669448020
 Iteration     2 Dimension    18 NMult    12 NNew      6
 CISAX will form     6 AO SS matrices at one time.
 NMat=     6 NSing=     6 JSym2X= 0.
 Root      1 not converged, maximum delta is    0.013684334005205
 Root      2 not converged, maximum delta is    0.017172397028135
 Root      3 not converged, maximum delta is    0.034322681474908
 Excitation Energies [eV] at current iteration:
 Root      1 :     8.031341218875889   Change is   -0.055238019628353
 Root      2 :    10.103855662465260   Change is   -0.023625458787939
 Root      3 :    10.247321219079750   Change is   -0.118400078093052
 Iteration     3 Dimension    24 NMult    18 NNew      6
 CISAX will form     6 AO SS matrices at one time.
 NMat=     6 NSing=     6 JSym2X= 0.
 Root      1 not converged, maximum delta is    0.001031506267467
 Root      2 has converged.
 Root      3 not converged, maximum delta is    0.004147473323468
 Excitation Energies [eV] at current iteration:
 Root      1 :     8.030994498328434   Change is   -0.000346720547455
 Root      2 :    10.103812242611110   Change is   -0.000043419854157
 Root      3 :    10.244787714986200   Change is   -0.002533504093554
 Iteration     4 Dimension    28 NMult    24 NNew      4
 CISAX will form     4 AO SS matrices at one time.
 NMat=     4 NSing=     4 JSym2X= 0.
 Root      1 has converged.
 Root      2 has converged.
 Root      3 has converged.
 Excitation Energies [eV] at current iteration:
 Root      1 :     8.030993533075318   Change is   -0.000000965253117
 Root      2 :    10.103812242611040   Change is   -0.000000000000066
 Root      3 :    10.244759425161240   Change is   -0.000028289824953
 Convergence achieved on expansion vectors.
 ***********************************************************************
 Excited states from <AA,BB:AA,BB> singles matrix:
 ***********************************************************************
 
 1PDM for each excited state written to RWF  633
 Ground to excited state transition densities written to RWF  633
 Ground to excited state transition electric dipole moments (Au):
       state          X           Y           Z        Dip. S.      Osc.
         1         0.0000      0.0000      0.2672      0.0714      0.0140
         2         0.0000      0.0000      0.0000      0.0000      0.0000
         3         0.3327      0.4708      0.0000      0.3323      0.0834
 Ground to excited state transition velocity dipole moments (Au):
       state          X           Y           Z        Dip. S.      Osc.
         1         0.0000      0.0000     -0.1684      0.0283      0.0640
         2         0.0000      0.0000      0.0000      0.0000      0.0000
         3        -0.1684     -0.2382      0.0000      0.0851      0.1507
 Ground to excited state transition magnetic dipole moments (Au):
       state          X           Y           Z
         1         0.4974      0.0246      0.0000
         2        -0.1748     -0.2473      0.0000
         3         0.0000      0.0000     -0.5322
 Ground to excited state transition velocity quadrupole moments (Au):
       state          XX          YY          ZZ          XY          XZ          YZ
         1         0.0000      0.0000      0.0000      0.0000      0.0293      0.5736
         2         0.0000      0.0000      0.0000      0.0000      0.2065     -0.1459
         3         0.0026      1.6720     -0.0045      0.7628      0.0000      0.0000
 <0|del|b> * <b|rxdel|0> + <0|del|b> * <b|delr+rdel|0>
 Rotatory Strengths (R) in cgs (10**-40 erg-esu-cm/Gauss)
       state          XX          YY          ZZ    R(velocity)    E-M Angle
         1         0.0000      0.0000      0.0000      0.0000       90.00
         2         0.0000      0.0000      0.0000      0.0000       90.00
         3         0.0000      0.0000      0.0000      0.0000       90.00
 1/2[<0|r|b>*<b|rxdel|0> + (<0|rxdel|b>*<b|r|0>)*]
 Rotatory Strengths (R) in cgs (10**-40 erg-esu-cm/Gauss)
       state          XX          YY          ZZ     R(length)
         1         0.0000      0.0000      0.0000      0.0000
         2         0.0000      0.0000      0.0000      0.0000
         3         0.0000      0.0000      0.0000      0.0000
  1/2[<0|del|b>*<b|r|0> + (<0|r|b>*<b|del|0>)*] (Au)
       state          X           Y           Z        Dip. S.   Osc.(frdel)
         1         0.0000      0.0000     -0.0450      0.0450      0.0300
         2         0.0000      0.0000      0.0000      0.0000      0.0000
         3        -0.0560     -0.1122      0.0000      0.1682      0.1121

 Excitation energies and oscillator strengths:
 
 Excited state symmetry could not be determined.
 Excited State   1:      Singlet-?Sym    8.0310 eV  154.38 nm  f=0.0140  <S**2>=0.000
       5 ->  6         0.70714
 This state for optimization and/or second-order correction.
 Total Energy, E(TD-HF/TD-KS) =  -76.1237962412    
 Copying the excited state density for this state as the 1-particle RhoCI density.
 
 Excited state symmetry could not be determined.
 Excited State   2:      Singlet-?Sym   10.1038 eV  122.71 nm  f=0.0000  <S**2>=0.000
       5 ->  7         0.70666
 
 Excited state symmetry could not be determined.
 Excited State   3:      Singlet-?Sym   10.2448 eV  121.02 nm  f=0.0834  <S**2>=0.000
       4 ->  6         0.70316
 SavETr:  write IOETrn=   770 NScale= 10 NData=  16 NLR=1 NState=    3 LETran=      64.
 Leave Link  914 at Sun Mar 22 10:45:03 2015, MaxMem=    33554432 cpu:         1.1
 (Enter /opt/g09_D01_em64t/g09/l601.exe)
 Copying SCF densities to generalized density rwf, IOpCl= 0 IROHF=0.

 **********************************************************************

            Population analysis using the SCF density.

 **********************************************************************

 Alpha  occ. eigenvalues --  -19.13400  -0.99453  -0.52634  -0.35965  -0.29032
 Alpha virt. eigenvalues --    0.06722   0.15449   0.77849   0.79540   0.88825
 Alpha virt. eigenvalues --    0.89280   1.01925   1.15973   1.51863   1.57894
 Alpha virt. eigenvalues --    1.66293   2.23120   2.24126   2.48016   2.63303
 Alpha virt. eigenvalues --    2.68274   3.03447   3.32849   3.51472   3.72889
          Condensed to atoms (all electrons):
               1          2          3
     1  O    8.042764   0.288404   0.288404
     2  H    0.288404   0.428319  -0.026510
     3  H    0.288404  -0.026510   0.428319
 Mulliken charges:
               1
     1  O   -0.619573
     2  H    0.309787
     3  H    0.309787
     4  O    0.000000
     5  H    0.000000
     6  H    0.000000
 Sum of Mulliken charges =   0.00000
 Mulliken charges with hydrogens summed into heavy atoms:
               1
     1  O    0.000000
     4  O    0.000000
 Electronic spatial extent (au):  <R**2>=            185.8648
 Charge=              0.0000 electrons
 Dipole moment (field-independent basis, Debye):
    X=              1.1272    Y=              1.5950    Z=              0.0000  Tot=              1.9531
 Quadrupole moment (field-independent basis, Debye-Ang):
   XX=             -5.4270   YY=            -12.1383   ZZ=             -7.1262
   XY=             -3.8280   XZ=              0.0000   YZ=              0.0000
 Traceless Quadrupole moment (field-independent basis, Debye-Ang):
   XX=              2.8035   YY=             -3.9078   ZZ=              1.1043
   XY=             -3.8280   XZ=              0.0000   YZ=              0.0000
 Octapole moment (field-independent basis, Debye-Ang**2):
  XXX=              6.2453  YYY=             56.9983  ZZZ=              0.0000  XYY=             12.4889
  XXY=             12.4494  XXZ=              0.0000  XZZ=              2.3379  YZZ=             15.2270
  YYZ=              0.0000  XYZ=              0.0000
 Hexadecapole moment (field-independent basis, Debye-Ang**3):
 XXXX=            -10.3510 YYYY=           -222.4301 ZZZZ=             -5.1120 XXXY=            -13.6542
 XXXZ=              0.0000 YYYX=            -39.1466 YYYZ=              0.0000 ZZZX=              0.0000
 ZZZY=              0.0000 XXYY=            -30.7882 XXZZ=             -2.8224 YYZZ=            -34.5159
 XXYZ=              0.0000 YYXZ=              0.0000 ZZXY=             -4.8886
 N-N= 9.157115983089D+00 E-N=-1.989439785063D+02  KE= 7.583270069282D+01
 Leave Link  601 at Sun Mar 22 10:45:03 2015, MaxMem=    33554432 cpu:         0.0
 (Enter /opt/g09_D01_em64t/g09/l9999.exe)

 Test job not archived.
 1\1\GINC-EAM\SP\RB3LYP TD-FC\6-31G(d,p)\H4O2\DULIKAI\22-Mar-2015\0\\#P
  Test IOp(2/15=1,5/32=2,5/38=1) B3LYP/6-31G(D,P) TD(SINGLET,NSTATES=3,
 ROOT=1)\\ch2nh2 iop(9/40=20) Point 2 -- high level on model system.\\0
 ,1\O,0,-0.36870503,-2.19424457,0.\H,0,0.59129497,-2.19424457,0.\H,0,-0
 .68915962,-1.28930874,0.\O,0,-2.34712227,0.34172661,0.\H,0,-1.38712227
 ,0.34172661,0.\H,0,-2.66757686,1.24666244,0.\\Version=EM64L-G09RevD.01
 \HF=-76.4189298\RMSD=5.950e-09\PG=CS [SG(H4O2)]\\@


 SEE YOU NOW,
 YOUR BAIT OF FALSEHOOD TAKES THIS CARP OF TRUTH.
 AND THUS DO WE OF WISDOM AND OF REACH...
 BY INDIRECTIONS FIND DIRECTIONS OUT.    -- HAMLET, II, 1
 Job cpu time:       0 days  0 hours  0 minutes  2.3 seconds.
 File lengths (MBytes):  RWF=      5 Int=      0 D2E=      0 Chk=      1 Scr=      1
 Normal termination of Gaussian 09 at Sun Mar 22 10:45:03 2015.
