 Entering Gaussian System, Link 0=g09
 Input=qmqm.gjf
 Output=qmqm.log
 Initial command:
 /opt/g09_D01_em64t/g09/l1.exe "/tmp/Gau-24235.inp" -scrdir="/tmp/"
 Entering Link 1 = /opt/g09_D01_em64t/g09/l1.exe PID=     24236.
  
 Copyright (c) 1988,1990,1992,1993,1995,1998,2003,2009,2013,
            Gaussian, Inc.  All Rights Reserved.
  
 This is part of the Gaussian(R) 09 program.  It is based on
 the Gaussian(R) 03 system (copyright 2003, Gaussian, Inc.),
 the Gaussian(R) 98 system (copyright 1998, Gaussian, Inc.),
 the Gaussian(R) 94 system (copyright 1995, Gaussian, Inc.),
 the Gaussian 92(TM) system (copyright 1992, Gaussian, Inc.),
 the Gaussian 90(TM) system (copyright 1990, Gaussian, Inc.),
 the Gaussian 88(TM) system (copyright 1988, Gaussian, Inc.),
 the Gaussian 86(TM) system (copyright 1986, Carnegie Mellon
 University), and the Gaussian 82(TM) system (copyright 1983,
 Carnegie Mellon University). Gaussian is a federally registered
 trademark of Gaussian, Inc.
  
 This software contains proprietary and confidential information,
 including trade secrets, belonging to Gaussian, Inc.
  
 This software is provided under written license and may be
 used, copied, transmitted, or stored only in accord with that
 written license.
  
 The following legend is applicable only to US Government
 contracts under FAR:
  
                    RESTRICTED RIGHTS LEGEND
  
 Use, reproduction and disclosure by the US Government is
 subject to restrictions as set forth in subparagraphs (a)
 and (c) of the Commercial Computer Software - Restricted
 Rights clause in FAR 52.227-19.
  
 Gaussian, Inc.
 340 Quinnipiac St., Bldg. 40, Wallingford CT 06492
  
  
 ---------------------------------------------------------------
 Warning -- This program may not be used in any manner that
 competes with the business of Gaussian, Inc. or will provide
 assistance to any competitor of Gaussian, Inc.  The licensee
 of this program is prohibited from giving any competitor of
 Gaussian, Inc. access to this program.  By using this program,
 the user acknowledges that Gaussian, Inc. is engaged in the
 business of creating and licensing software in the field of
 computational chemistry and represents and warrants to the
 licensee that it is not a competitor of Gaussian, Inc. and that
 it will not use this program in any manner prohibited above.
 ---------------------------------------------------------------
  

 Cite this work as:
 Gaussian 09, Revision D.01,
 M. J. Frisch, G. W. Trucks, H. B. Schlegel, G. E. Scuseria, 
 M. A. Robb, J. R. Cheeseman, G. Scalmani, V. Barone, B. Mennucci, 
 G. A. Petersson, H. Nakatsuji, M. Caricato, X. Li, H. P. Hratchian, 
 A. F. Izmaylov, J. Bloino, G. Zheng, J. L. Sonnenberg, M. Hada, 
 M. Ehara, K. Toyota, R. Fukuda, J. Hasegawa, M. Ishida, T. Nakajima, 
 Y. Honda, O. Kitao, H. Nakai, T. Vreven, J. A. Montgomery, Jr., 
 J. E. Peralta, F. Ogliaro, M. Bearpark, J. J. Heyd, E. Brothers, 
 K. N. Kudin, V. N. Staroverov, T. Keith, R. Kobayashi, J. Normand, 
 K. Raghavachari, A. Rendell, J. C. Burant, S. S. Iyengar, J. Tomasi, 
 M. Cossi, N. Rega, J. M. Millam, M. Klene, J. E. Knox, J. B. Cross, 
 V. Bakken, C. Adamo, J. Jaramillo, R. Gomperts, R. E. Stratmann, 
 O. Yazyev, A. J. Austin, R. Cammi, C. Pomelli, J. W. Ochterski, 
 R. L. Martin, K. Morokuma, V. G. Zakrzewski, G. A. Voth, 
 P. Salvador, J. J. Dannenberg, S. Dapprich, A. D. Daniels, 
 O. Farkas, J. B. Foresman, J. V. Ortiz, J. Cioslowski, 
 and D. J. Fox, Gaussian, Inc., Wallingford CT, 2013.
 
 ******************************************
 Gaussian 09:  EM64L-G09RevD.01 24-Apr-2013
                22-Mar-2015 
 ******************************************
 %chk=oniom.chk
 %mem=1GB
 ----------------------------------------------------------------------
 #p force ONIOM(b3lyp/6-31g(d,p) td(singlet,nstates=3,root=1):b3lyp/6-3
 1G*)=(EmbedCharge,inputfiles) nosymm geom=connectivity pop=full
 ----------------------------------------------------------------------
 1/10=7,30=1,38=1,52=12,57=2,74=500/1,3;
 2/12=2,15=1,17=6,18=5,40=1/2;
 1/10=7,30=1,38=1,52=12,53=3172,74=500,118=1/20;
 3/5=1,6=6,7=1,11=2,16=1,25=1,30=1,71=1,74=-5/1,2,3;
 4//1;
 5/5=2,38=5/2;
 6/7=3,28=1/1;
 7/7=1,30=1,33=-1/1,2,3,16;
 1/10=7,30=1,52=12,53=2032,74=500,118=1/20;
 3/5=1,6=6,7=101,11=9,16=1,25=1,30=1,71=1,74=-5/1,2,8,3;
 4//1;
 5/5=2,38=5/2;
 8/6=1,10=2,107=1,108=3/1;
 9/8=1,15=2,41=3,42=1,48=1,70=2/14;
 10/5=4,31=1/2;
 6/7=3,18=1/1;
 7/7=1,12=6,13=5,14=1,30=1,33=-1/1,2,3,16;
 1/10=7,30=1,52=12,53=1022,74=500,118=1/20;
 3/5=1,6=6,7=1,11=2,16=1,25=1,30=1,71=1,74=-5/1,2,3;
 4//1;
 5/5=2,38=5/2;
 6/7=3,28=1/1;
 7/7=1,30=1,33=-1/1,2,3,16;
 1/10=7,30=1,52=12,53=3015,74=500/20;
 7/9=1,29=1,44=-1/16;
 1/10=7,30=1,52=12,74=500/3;
 99//99;
 Leave Link    1 at Sun Mar 22 10:40:38 2015, MaxMem=   134217728 cpu:         0.0
 (Enter /opt/g09_D01_em64t/g09/l101.exe)
 ONIOM: restoring gridpoint  3 on chk file.
 -------------------
 ch2nh2 iop(9/40=20)
 -------------------
 Symbolic Z-matrix:
 Charge =  0 Multiplicity = 1 for low   level calculation on real  system.
 Charge =  0 Multiplicity = 1 for high  level calculation on model system.
 Charge =  0 Multiplicity = 1 for low   level calculation on model system.
 O                    0    -0.36871  -2.19424   0.       H 
 H                    0     0.59129  -2.19424   0.       H 
 H                    0    -0.68916  -1.28931   0.       H 
 O                    0    -2.34712   0.34173   0.       M 
 H                    0    -1.38712   0.34173   0.       M 
 H                    0    -2.66758   1.24666   0.       M 
 
 NAtoms=      6 NQM=        6 NQMF=       0 NMMI=      0 NMMIF=      0
                NMic=       0 NMicF=      0.
                    Isotopes and Nuclear Properties:
 (Nuclear quadrupole moments (NQMom) in fm**2, nuclear magnetic moments (NMagM)
  in nuclear magnetons)

  Atom         1           2           3           4           5           6
 IAtWgt=          16           1           1          16           1           1
 AtmWgt=  15.9949146   1.0078250   1.0078250  15.9949146   1.0078250   1.0078250
 NucSpn=           0           1           1           0           1           1
 AtZEff=   0.0000000   0.0000000   0.0000000   0.0000000   0.0000000   0.0000000
 NQMom=    0.0000000   0.0000000   0.0000000   0.0000000   0.0000000   0.0000000
 NMagM=    0.0000000   2.7928460   2.7928460   0.0000000   2.7928460   2.7928460
 AtZNuc=   8.0000000   1.0000000   1.0000000   8.0000000   1.0000000   1.0000000
 Leave Link  101 at Sun Mar 22 10:40:38 2015, MaxMem=   134217728 cpu:         0.1
 (Enter /opt/g09_D01_em64t/g09/l103.exe)

 GradGradGradGradGradGradGradGradGradGradGradGradGradGradGradGradGradGrad
 Berny optimization.
 Initialization pass.
 Trust Radius=3.00D-01 FncErr=1.00D-07 GrdErr=1.00D-07
 Number of steps in this run=      2 maximum allowed number of steps=      2.
 GradGradGradGradGradGradGradGradGradGradGradGradGradGradGradGradGradGrad

 Leave Link  103 at Sun Mar 22 10:40:38 2015, MaxMem=   134217728 cpu:         0.0
 (Enter /opt/g09_D01_em64t/g09/l202.exe)
                          Input orientation:                          
 ---------------------------------------------------------------------
 Center     Atomic      Atomic             Coordinates (Angstroms)
 Number     Number       Type             X           Y           Z
 ---------------------------------------------------------------------
      1          8           0       -0.368705   -2.194245    0.000000
      2          1           0        0.591295   -2.194245    0.000000
      3          1           0       -0.689160   -1.289309    0.000000
      4          8           0       -2.347122    0.341727    0.000000
      5          1           0       -1.387122    0.341727    0.000000
      6          1           0       -2.667577    1.246662    0.000000
 ---------------------------------------------------------------------
                    Distance matrix (angstroms):
                    1          2          3          4          5
     1  O    0.000000
     2  H    0.960000   0.000000
     3  H    0.960000   1.567952   0.000000
     4  O    3.216409   3.881423   2.325751   0.000000
     5  H    2.732823   3.216409   1.774099   0.960000   0.000000
     6  H    4.138194   4.739207   3.216409   0.960000   1.567952
                    6
     6  H    0.000000
 Symmetry turned off by external request.
 Stoichiometry    H4O2
 Framework group  CS[SG(H4O2)]
 Deg. of freedom     9
 Full point group                 CS      NOp   2
 Rotational constants (GHZ):    416.7917648      5.2904637      5.2241519
 Leave Link  202 at Sun Mar 22 10:40:38 2015, MaxMem=   134217728 cpu:         0.0
 (Enter /opt/g09_D01_em64t/g09/l120.exe)
 ONIOM: saving gridpoint 17
 ONIOM: restoring gridpoint  3 on chk file.
 ONIOM: generating point  3 -- low level on real system.
 ChrgS2: IScale=     5     5     5     5     0     0 (distance 6..1 bonds)
 ChrgS2:  Scale=  1.00  1.00  1.00  1.00  0.00  0.00 (distance 6..1 bonds)

 --------------------------------------------------------------------------------
 #P Test IOp(2/15=1,5/32=2,5/38=1) B3LYP/6-31G*

 ch2nh2 iop(9/40=20)
 Point  3 -- low level on real system.

 0,1
  O                                                -0.368705030000     -2.194244570000      0.000000000000
  H                                                 0.591294970000     -2.194244570000      0.000000000000
  H                                                -0.689159620000     -1.289308740000      0.000000000000
  O                                                -2.347122270000      0.341726610000      0.000000000000
  H                                                -1.387122270000      0.341726610000      0.000000000000
  H                                                -2.667576860000      1.246662440000      0.000000000000

 1 2 1.000 3 1.000
 2 1 1.000
 3 1 1.000
 4 5 1.000 6 1.000
 5 4 1.000
 6 4 1.000
 
 --------------------------------------------------------------------------------

 Leave Link  120 at Sun Mar 22 10:40:38 2015, MaxMem=   134217728 cpu:         0.0
 (Enter /opt/g09_D01_em64t/g09/l301.exe)
 Standard basis: 6-31G(d) (6D, 7F)
 Ernie: Thresh=  0.10000D-02 Tol=  0.10000D-05 Strict=F.
    38 basis functions,    72 primitive gaussians,    38 cartesian basis functions
    10 alpha electrons       10 beta electrons
       nuclear repulsion energy        35.0658062478 Hartrees.
 IExCor=  402 DFT=T Ex+Corr=B3LYP ExCW=0 ScaHFX=  0.200000
 ScaDFX=  0.800000  0.720000  1.000000  0.810000 ScalE2=  1.000000  1.000000
 IRadAn=      0 IRanWt=     -1 IRanGd=            0 ICorTp=0 IEmpDi=  4
 NAtoms=    6 NActive=    6 NUniq=    6 SFac= 1.00D+00 NAtFMM=   60 NAOKFM=F Big=F
 Integral buffers will be    131072 words long.
 Raffenetti 2 integral format.
 Two-electron integral symmetry is turned off.
 Leave Link  301 at Sun Mar 22 10:40:38 2015, MaxMem=   134217728 cpu:         0.0
 (Enter /opt/g09_D01_em64t/g09/l302.exe)
 NPDir=0 NMtPBC=     1 NCelOv=     1 NCel=       1 NClECP=     1 NCelD=      1
         NCelK=      1 NCelE2=     1 NClLst=     1 CellRange=     0.0.
 One-electron integrals computed using PRISM.
 NBasis=    38 RedAO= T EigKep=  1.60D-02  NBF=    38
 NBsUse=    38 1.00D-06 EigRej= -1.00D+00 NBFU=    38
 Precomputing XC quadrature grid using
 IXCGrd= 4 IRadAn=           0 IRanWt=          -1 IRanGd=           0 AccXCQ= 0.00D+00.
 Generated NRdTot=       0 NPtTot=           0 NUsed=           0 NTot=          32
 NSgBfM=    38    38    38    38    38 MxSgAt=     6 MxSgA2=     6.
 Leave Link  302 at Sun Mar 22 10:40:38 2015, MaxMem=   134217728 cpu:         0.1
 (Enter /opt/g09_D01_em64t/g09/l303.exe)
 DipDrv:  MaxL=1.
 Leave Link  303 at Sun Mar 22 10:40:38 2015, MaxMem=   134217728 cpu:         0.0
 (Enter /opt/g09_D01_em64t/g09/l401.exe)
 ExpMin= 1.61D-01 ExpMax= 5.48D+03 ExpMxC= 8.25D+02 IAcc=1 IRadAn=         1 AccDes= 0.00D+00
 Harris functional with IExCor=  402 and IRadAn=       1 diagonalized for initial guess.
 HarFok:  IExCor=  402 AccDes= 0.00D+00 IRadAn=         1 IDoV= 1 UseB2=F ITyADJ=14
 ICtDFT=  3500011 ScaDFX=  1.000000  1.000000  1.000000  1.000000
 FoFCou: FMM=F IPFlag=           0 FMFlag=      100000 FMFlg1=           0
         NFxFlg=           0 DoJE=T BraDBF=F KetDBF=T FulRan=T
         wScrn=  0.000000 ICntrl=     500 IOpCl=  0 I1Cent=   200000004 NGrid=           0
         NMat0=    1 NMatS0=      1 NMatT0=    0 NMatD0=    1 NMtDS0=    0 NMtDT0=    0
 Symmetry not used in FoFCou.
 Harris En= -152.889293571786    
 JPrj=0 DoOrth=F DoCkMO=F.
 Leave Link  401 at Sun Mar 22 10:40:39 2015, MaxMem=   134217728 cpu:         0.2
 (Enter /opt/g09_D01_em64t/g09/l502.exe)
 Closed shell SCF:
 Using DIIS extrapolation, IDIIS=  1040.
 Two-electron integral symmetry not used.
 Keep R1 ints in memory in canonical form, NReq=1158771.
 IVT=       23350 IEndB=       23350 NGot=   134217728 MDV=   133919468
 LenX=   133919468 LenY=   133917583
 Requested convergence on RMS density matrix=1.00D-08 within 128 cycles.
 Requested convergence on MAX density matrix=1.00D-06.
 Requested convergence on             energy=1.00D-06.
 No special actions if energy rises.
 FoFCou: FMM=F IPFlag=           0 FMFlag=           0 FMFlg1=           0
         NFxFlg=           0 DoJE=F BraDBF=F KetDBF=F FulRan=T
         wScrn=  0.000000 ICntrl=     600 IOpCl=  0 I1Cent=           0 NGrid=           0
         NMat0=    1 NMatS0=    741 NMatT0=    0 NMatD0=    1 NMtDS0=    0 NMtDT0=    0
 Symmetry not used in FoFCou.
 Integral accuracy reduced to 1.0D-05 until final iterations.

 Cycle   1  Pass 0  IDiag  1:
 E= -152.654677299868    
 DIIS: error= 7.71D-02 at cycle   1 NSaved=   1.
 NSaved= 1 IEnMin= 1 EnMin= -152.654677299868     IErMin= 1 ErrMin= 7.71D-02
 ErrMax= 7.71D-02  0.00D+00 EMaxC= 1.00D-01 BMatC= 2.12D-01 BMatP= 2.12D-01
 IDIUse=3 WtCom= 2.29D-01 WtEn= 7.71D-01
 Coeff-Com:  0.100D+01
 Coeff-En:   0.100D+01
 Coeff:      0.100D+01
 Gap=     0.175 Goal=   None    Shift=    0.000
 GapD=    0.175 DampG=1.000 DampE=0.500 DampFc=0.5000 IDamp=-1.
 Damping current iteration by 5.00D-01
 RMSDP=2.22D-02 MaxDP=2.60D-01              OVMax= 2.03D-01

 Cycle   2  Pass 0  IDiag  1:
 E= -152.709119475975     Delta-E=       -0.054442176107 Rises=F Damp=T
 DIIS: error= 1.90D-02 at cycle   2 NSaved=   2.
 NSaved= 2 IEnMin= 2 EnMin= -152.709119475975     IErMin= 2 ErrMin= 1.90D-02
 ErrMax= 1.90D-02  0.00D+00 EMaxC= 1.00D-01 BMatC= 1.26D-02 BMatP= 2.12D-01
 IDIUse=3 WtCom= 8.10D-01 WtEn= 1.90D-01
 Coeff-Com:  0.180D+00 0.820D+00
 Coeff-En:   0.296D+00 0.704D+00
 Coeff:      0.202D+00 0.798D+00
 Gap=     0.296 Goal=   None    Shift=    0.000
 RMSDP=2.82D-03 MaxDP=4.59D-02 DE=-5.44D-02 OVMax= 1.16D-01

 Cycle   3  Pass 0  IDiag  1:
 E= -152.811864375585     Delta-E=       -0.102744899610 Rises=F Damp=F
 DIIS: error= 3.12D-03 at cycle   3 NSaved=   3.
 NSaved= 3 IEnMin= 3 EnMin= -152.811864375585     IErMin= 3 ErrMin= 3.12D-03
 ErrMax= 3.12D-03  0.00D+00 EMaxC= 1.00D-01 BMatC= 3.80D-04 BMatP= 1.26D-02
 IDIUse=3 WtCom= 9.69D-01 WtEn= 3.12D-02
 Coeff-Com:  0.374D-01-0.767D-02 0.970D+00
 Coeff-En:   0.000D+00 0.000D+00 0.100D+01
 Coeff:      0.362D-01-0.743D-02 0.971D+00
 Gap=     0.310 Goal=   None    Shift=    0.000
 RMSDP=3.59D-04 MaxDP=4.81D-03 DE=-1.03D-01 OVMax= 3.21D-03

 Cycle   4  Pass 0  IDiag  1:
 E= -152.812121944117     Delta-E=       -0.000257568532 Rises=F Damp=F
 DIIS: error= 3.13D-04 at cycle   4 NSaved=   4.
 NSaved= 4 IEnMin= 4 EnMin= -152.812121944117     IErMin= 4 ErrMin= 3.13D-04
 ErrMax= 3.13D-04  0.00D+00 EMaxC= 1.00D-01 BMatC= 4.96D-06 BMatP= 3.80D-04
 IDIUse=3 WtCom= 9.97D-01 WtEn= 3.13D-03
 Coeff-Com:  0.643D-02-0.170D-01 0.226D+00 0.784D+00
 Coeff-En:   0.000D+00 0.000D+00 0.000D+00 0.100D+01
 Coeff:      0.641D-02-0.169D-01 0.226D+00 0.785D+00
 Gap=     0.311 Goal=   None    Shift=    0.000
 RMSDP=4.13D-05 MaxDP=4.50D-04 DE=-2.58D-04 OVMax= 4.07D-04

 Cycle   5  Pass 0  IDiag  1:
 E= -152.812125007877     Delta-E=       -0.000003063760 Rises=F Damp=F
 DIIS: error= 1.38D-04 at cycle   5 NSaved=   5.
 NSaved= 5 IEnMin= 5 EnMin= -152.812125007877     IErMin= 5 ErrMin= 1.38D-04
 ErrMax= 1.38D-04  0.00D+00 EMaxC= 1.00D-01 BMatC= 7.12D-07 BMatP= 4.96D-06
 IDIUse=3 WtCom= 9.99D-01 WtEn= 1.38D-03
 Coeff-Com:  0.332D-02-0.919D-02 0.111D+00 0.417D+00 0.477D+00
 Coeff-En:   0.000D+00 0.000D+00 0.000D+00 0.000D+00 0.100D+01
 Coeff:      0.332D-02-0.918D-02 0.111D+00 0.417D+00 0.478D+00
 Gap=     0.311 Goal=   None    Shift=    0.000
 RMSDP=1.61D-05 MaxDP=1.86D-04 DE=-3.06D-06 OVMax= 1.65D-04

 Cycle   6  Pass 0  IDiag  1:
 E= -152.812125482679     Delta-E=       -0.000000474801 Rises=F Damp=F
 DIIS: error= 2.67D-05 at cycle   6 NSaved=   6.
 NSaved= 6 IEnMin= 6 EnMin= -152.812125482679     IErMin= 6 ErrMin= 2.67D-05
 ErrMax= 2.67D-05  0.00D+00 EMaxC= 1.00D-01 BMatC= 3.29D-08 BMatP= 7.12D-07
 IDIUse=1 WtCom= 1.00D+00 WtEn= 0.00D+00
 Coeff-Com:  0.273D-03-0.145D-03-0.996D-03-0.415D-02 0.119D+00 0.886D+00
 Coeff:      0.273D-03-0.145D-03-0.996D-03-0.415D-02 0.119D+00 0.886D+00
 Gap=     0.311 Goal=   None    Shift=    0.000
 RMSDP=3.57D-06 MaxDP=5.07D-05 DE=-4.75D-07 OVMax= 4.22D-05

 Initial convergence to 1.0D-05 achieved.  Increase integral accuracy.
 Cycle   7  Pass 1  IDiag  1:
 E= -152.812128441894     Delta-E=       -0.000002959215 Rises=F Damp=F
 DIIS: error= 2.67D-06 at cycle   1 NSaved=   1.
 NSaved= 1 IEnMin= 1 EnMin= -152.812128441894     IErMin= 1 ErrMin= 2.67D-06
 ErrMax= 2.67D-06  0.00D+00 EMaxC= 1.00D-01 BMatC= 3.41D-10 BMatP= 3.41D-10
 IDIUse=1 WtCom= 1.00D+00 WtEn= 0.00D+00
 Coeff-Com:  0.100D+01
 Coeff:      0.100D+01
 Gap=     0.311 Goal=   None    Shift=    0.000
 RMSDP=3.57D-06 MaxDP=5.07D-05 DE=-2.96D-06 OVMax= 7.42D-06

 Cycle   8  Pass 1  IDiag  1:
 E= -152.812128442302     Delta-E=       -0.000000000408 Rises=F Damp=F
 DIIS: error= 9.56D-07 at cycle   2 NSaved=   2.
 NSaved= 2 IEnMin= 2 EnMin= -152.812128442302     IErMin= 2 ErrMin= 9.56D-07
 ErrMax= 9.56D-07  0.00D+00 EMaxC= 1.00D-01 BMatC= 5.97D-11 BMatP= 3.41D-10
 IDIUse=1 WtCom= 1.00D+00 WtEn= 0.00D+00
 Coeff-Com:  0.210D+00 0.790D+00
 Coeff:      0.210D+00 0.790D+00
 Gap=     0.311 Goal=   None    Shift=    0.000
 RMSDP=2.40D-07 MaxDP=3.01D-06 DE=-4.08D-10 OVMax= 3.18D-06

 Cycle   9  Pass 1  IDiag  1:
 E= -152.812128442311     Delta-E=       -0.000000000010 Rises=F Damp=F
 DIIS: error= 9.27D-07 at cycle   3 NSaved=   3.
 NSaved= 3 IEnMin= 3 EnMin= -152.812128442311     IErMin= 3 ErrMin= 9.27D-07
 ErrMax= 9.27D-07  0.00D+00 EMaxC= 1.00D-01 BMatC= 4.55D-11 BMatP= 5.97D-11
 IDIUse=1 WtCom= 1.00D+00 WtEn= 0.00D+00
 Coeff-Com: -0.937D-02 0.466D+00 0.543D+00
 Coeff:     -0.937D-02 0.466D+00 0.543D+00
 Gap=     0.311 Goal=   None    Shift=    0.000
 RMSDP=1.17D-07 MaxDP=1.50D-06 DE=-9.72D-12 OVMax= 1.63D-06

 Cycle  10  Pass 1  IDiag  1:
 E= -152.812128442343     Delta-E=       -0.000000000031 Rises=F Damp=F
 DIIS: error= 3.93D-08 at cycle   4 NSaved=   4.
 NSaved= 4 IEnMin= 4 EnMin= -152.812128442343     IErMin= 4 ErrMin= 3.93D-08
 ErrMax= 3.93D-08  0.00D+00 EMaxC= 1.00D-01 BMatC= 1.14D-13 BMatP= 4.55D-11
 IDIUse=1 WtCom= 1.00D+00 WtEn= 0.00D+00
 Coeff-Com: -0.579D-02 0.727D-01 0.112D+00 0.821D+00
 Coeff:     -0.579D-02 0.727D-01 0.112D+00 0.821D+00
 Gap=     0.311 Goal=   None    Shift=    0.000
 RMSDP=7.02D-09 MaxDP=6.73D-08 DE=-3.12D-11 OVMax= 8.27D-08

 SCF Done:  E(RB3LYP) =  -152.812128442     A.U. after   10 cycles
            NFock= 10  Conv=0.70D-08     -V/T= 2.0074
 KE= 1.516892840631D+02 PE=-4.311717338310D+02 EE= 9.160451507769D+01
 Leave Link  502 at Sun Mar 22 10:40:40 2015, MaxMem=   134217728 cpu:         1.3
 (Enter /opt/g09_D01_em64t/g09/l601.exe)
 Copying SCF densities to generalized density rwf, IOpCl= 0 IROHF=0.

 **********************************************************************

            Population analysis using the SCF density.

 **********************************************************************

 Alpha  occ. eigenvalues --  -19.15082 -19.13328  -1.01509  -0.99623  -0.55757
 Alpha  occ. eigenvalues --   -0.52265  -0.37797  -0.35981  -0.30636  -0.28857
 Alpha virt. eigenvalues --    0.02211   0.09510   0.13444   0.24550   0.77885
 Alpha virt. eigenvalues --    0.82196   0.82681   0.86206   0.87106   0.89718
 Alpha virt. eigenvalues --    0.90001   0.93333   1.05258   1.09955   1.18182
 Alpha virt. eigenvalues --    1.41718   1.72225   1.74186   1.74249   1.74955
 Alpha virt. eigenvalues --    1.76960   1.78644   2.27996   2.32038   2.59381
 Alpha virt. eigenvalues --    2.60670   3.55568   3.66601
     Molecular Orbital Coefficients:
                           1         2         3         4         5
                           O         O         O         O         O
     Eigenvalues --   -19.15082 -19.13328  -1.01509  -0.99623  -0.55757
   1 1   O  1S         -0.00004   0.99281  -0.03170  -0.20784   0.00906
   2        2S         -0.00011   0.02608   0.07316   0.46271  -0.01789
   3        2PX        -0.00001   0.00066   0.00924   0.07116  -0.17431
   4        2PY        -0.00003   0.00085   0.01741   0.09879   0.13392
   5        2PZ         0.00000   0.00000   0.00000   0.00000   0.00000
   6        3S          0.00050   0.01100   0.05507   0.44275  -0.04418
   7        3PX         0.00000  -0.00010   0.00587   0.03318  -0.08333
   8        3PY         0.00019   0.00025   0.00373   0.05043   0.06071
   9        3PZ         0.00000   0.00000   0.00000   0.00000   0.00000
  10        4XX        -0.00006  -0.00791   0.00344   0.01724  -0.01304
  11        4YY        -0.00005  -0.00788   0.00254   0.01514   0.01379
  12        4ZZ        -0.00009  -0.00789  -0.00077  -0.01182   0.00137
  13        4XY        -0.00001   0.00000  -0.00038  -0.00400  -0.00453
  14        4XZ         0.00000   0.00000   0.00000   0.00000   0.00000
  15        4YZ         0.00000   0.00000   0.00000   0.00000   0.00000
  16 2   H  1S         -0.00007   0.00035   0.02082   0.13759  -0.10371
  17        2S          0.00004  -0.00103  -0.00079   0.00756  -0.05567
  18 3   H  1S          0.00002   0.00039   0.02825   0.13861   0.12128
  19        2S         -0.00040  -0.00174   0.01766  -0.00522   0.08752
  20 4   O  1S          0.99284   0.00003  -0.20735   0.03407   0.00507
  21        2S          0.02624   0.00003   0.46338  -0.07660  -0.01301
  22        2PX         0.00064   0.00001   0.07192  -0.00969   0.36397
  23        2PY         0.00089   0.00004   0.09662  -0.01755  -0.26526
  24        2PZ         0.00000   0.00000   0.00000   0.00000   0.00000
  25        3S          0.01020  -0.00027   0.43606  -0.07600  -0.01718
  26        3PX        -0.00002  -0.00007   0.03608  -0.00536   0.18500
  27        3PY        -0.00007  -0.00019   0.04524  -0.01355  -0.13887
  28        3PZ         0.00000   0.00000   0.00000   0.00000   0.00000
  29        4XX        -0.00780   0.00001   0.01853  -0.00315   0.02749
  30        4YY        -0.00780   0.00002   0.01547  -0.00301  -0.02869
  31        4ZZ        -0.00777   0.00002  -0.01110   0.00133  -0.00046
  32        4XY         0.00001  -0.00003  -0.00493   0.00006   0.00973
  33        4XZ         0.00000   0.00000   0.00000   0.00000   0.00000
  34        4YZ         0.00000   0.00000   0.00000   0.00000   0.00000
  35 5   H  1S          0.00035  -0.00001   0.14147  -0.02016   0.21508
  36        2S         -0.00090   0.00053   0.00080   0.01133   0.11932
  37 6   H  1S          0.00042   0.00008   0.13570  -0.02226  -0.21189
  38        2S         -0.00110  -0.00002   0.00584  -0.00127  -0.10970
                           6         7         8         9        10
                           O         O         O         O         O
     Eigenvalues --    -0.52265  -0.37797  -0.35981  -0.30636  -0.28857
   1 1   O  1S          0.00467   0.00345   0.08438   0.00000   0.00000
   2        2S         -0.00811  -0.01654  -0.17161   0.00000   0.00000
   3        2PX         0.38306   0.01437   0.32370   0.00000   0.00000
   4        2PY        -0.26650   0.03606   0.45349   0.00000   0.00000
   5        2PZ         0.00000   0.00000   0.00000   0.05487   0.64194
   6        3S         -0.02752   0.02021  -0.39255   0.00000   0.00000
   7        3PX         0.19527   0.00980   0.22029   0.00000   0.00000
   8        3PY        -0.14104   0.04212   0.31434   0.00000   0.00000
   9        3PZ         0.00000   0.00000   0.00000   0.04692   0.50421
  10        4XX         0.03052  -0.00336   0.01564   0.00000   0.00000
  11        4YY        -0.02878   0.00024   0.03262   0.00000   0.00000
  12        4ZZ         0.00111  -0.00410  -0.00111   0.00000   0.00000
  13        4XY         0.01189   0.00213   0.02899   0.00000   0.00000
  14        4XZ         0.00000   0.00000   0.00000   0.00149   0.02046
  15        4YZ         0.00000   0.00000   0.00000   0.00292   0.02819
  16 2   H  1S          0.21879   0.00173   0.13788   0.00000   0.00000
  17        2S          0.12354   0.01140   0.11401   0.00000   0.00000
  18 3   H  1S         -0.21243   0.01518   0.13592   0.00000   0.00000
  19        2S         -0.09885  -0.05942   0.10411   0.00000   0.00000
  20 4   O  1S         -0.00388   0.08488  -0.00079   0.00000   0.00000
  21        2S          0.00964  -0.16590   0.00564   0.00000   0.00000
  22        2PX         0.20772   0.31790  -0.05497   0.00000   0.00000
  23        2PY        -0.13418   0.46010  -0.01942   0.00000   0.00000
  24        2PZ         0.00000   0.00000   0.00000   0.64228  -0.06037
  25        3S          0.01739  -0.41996  -0.01312   0.00000   0.00000
  26        3PX         0.10935   0.20530  -0.04655   0.00000   0.00000
  27        3PY        -0.06151   0.31045  -0.01283   0.00000   0.00000
  28        3PZ         0.00000   0.00000   0.00000   0.50367  -0.04320
  29        4XX         0.01636   0.01702  -0.00184   0.00000   0.00000
  30        4YY        -0.01493   0.03436   0.00253   0.00000   0.00000
  31        4ZZ         0.00012   0.00172   0.00300   0.00000   0.00000
  32        4XY         0.00779   0.02866  -0.00429   0.00000   0.00000
  33        4XZ         0.00000   0.00000   0.00000   0.02052  -0.00154
  34        4YZ         0.00000   0.00000   0.00000   0.02743  -0.00289
  35 5   H  1S          0.11422   0.13652  -0.01729   0.00000   0.00000
  36        2S          0.04889   0.15621   0.02070   0.00000   0.00000
  37 6   H  1S         -0.11299   0.14018   0.00377   0.00000   0.00000
  38        2S         -0.06492   0.10244  -0.00042   0.00000   0.00000
                          11        12        13        14        15
                           V         V         V         V         V
     Eigenvalues --     0.02211   0.09510   0.13444   0.24550   0.77885
   1 1   O  1S         -0.05653   0.07314   0.02462   0.05003   0.00267
   2        2S          0.09020  -0.08768  -0.00808  -0.07702  -0.06062
   3        2PX         0.03742  -0.23428  -0.20559   0.21367   0.09555
   4        2PY         0.20899  -0.05717   0.11555  -0.24648  -0.20088
   5        2PZ         0.00000   0.00000   0.00000   0.00000   0.00000
   6        3S          0.62313  -0.92785  -0.38327  -0.67744   0.12281
   7        3PX         0.07806  -0.40274  -0.38586   0.41815   0.34703
   8        3PY         0.25658  -0.10025   0.13358  -0.55680  -0.13711
   9        3PZ         0.00000   0.00000   0.00000   0.00000   0.00000
  10        4XX        -0.01689   0.02153   0.00877   0.02464  -0.13635
  11        4YY        -0.00771   0.03375   0.02220   0.00240   0.12756
  12        4ZZ        -0.02361   0.04141   0.02125   0.02120  -0.02379
  13        4XY         0.00596  -0.00783  -0.00468   0.00138  -0.06028
  14        4XZ         0.00000   0.00000   0.00000   0.00000   0.00000
  15        4YZ         0.00000   0.00000   0.00000   0.00000   0.00000
  16 2   H  1S         -0.04094   0.09527   0.08519  -0.03609  -0.62655
  17        2S         -0.41146   1.14736   0.86450  -0.66027   0.39938
  18 3   H  1S         -0.07246   0.04600  -0.03798   0.15309   0.74338
  19        2S         -0.53423   0.28456  -0.27517   1.83451  -0.57553
  20 4   O  1S         -0.08453  -0.05239   0.00881  -0.02973  -0.01848
  21        2S          0.11706   0.05757  -0.00682  -0.02609   0.38921
  22        2PX         0.18920  -0.03430   0.26929   0.20088   0.05510
  23        2PY         0.10833   0.21698  -0.21990   0.07934  -0.10614
  24        2PZ         0.00000   0.00000   0.00000   0.00000   0.00000
  25        3S          0.95588   0.70250  -0.14265   0.69581  -0.63616
  26        3PX         0.28598  -0.06257   0.49468   0.49442  -0.05912
  27        3PY         0.20181   0.34344  -0.41676  -0.08682   0.30586
  28        3PZ         0.00000   0.00000   0.00000   0.00000   0.00000
  29        4XX        -0.02193  -0.03080   0.01900  -0.03652   0.08520
  30        4YY        -0.03179  -0.01094  -0.01031  -0.01763   0.05631
  31        4ZZ        -0.04153  -0.03208   0.00584  -0.04361   0.16610
  32        4XY         0.01310  -0.00151   0.00626  -0.02195   0.08193
  33        4XZ         0.00000   0.00000   0.00000   0.00000   0.00000
  34        4YZ         0.00000   0.00000   0.00000   0.00000   0.00000
  35 5   H  1S         -0.08719  -0.03703  -0.07699  -0.13172  -0.27684
  36        2S         -0.80931  -0.16986  -0.89855  -1.51945   0.40822
  37 6   H  1S         -0.08833  -0.06585   0.08636   0.13279  -0.53001
  38        2S         -0.57282  -0.94632   1.15597   0.23558   0.33812
                          16        17        18        19        20
                           V         V         V         V         V
     Eigenvalues --     0.82196   0.82681   0.86206   0.87106   0.89718
   1 1   O  1S         -0.00571  -0.01851   0.04050   0.00000   0.00469
   2        2S          0.17553   0.14357  -0.17149   0.00000  -0.60281
   3        2PX        -0.05851   0.21763  -0.26465   0.00000   0.39935
   4        2PY        -0.03452   0.25199  -0.26458   0.00000   0.63722
   5        2PZ         0.00000   0.00000   0.00000  -0.44327   0.00000
   6        3S         -0.19307  -0.28957   0.03533   0.00000   0.99334
   7        3PX         0.11862   0.17719   0.18410   0.00000  -0.50432
   8        3PY         0.05406  -0.29464  -0.08950   0.00000  -0.80883
   9        3PZ         0.00000   0.00000   0.00000   0.47334   0.00000
  10        4XX         0.01897  -0.11094   0.06748   0.00000  -0.16708
  11        4YY         0.07348   0.06703   0.03796   0.00000  -0.19138
  12        4ZZ         0.05468   0.10109  -0.11295   0.00000  -0.23305
  13        4XY        -0.00387   0.03868  -0.09207   0.00000  -0.05474
  14        4XZ         0.00000   0.00000   0.00000   0.00184   0.00000
  15        4YZ         0.00000   0.00000   0.00000   0.00821   0.00000
  16 2   H  1S         -0.18232  -0.80685   0.56476   0.00000   0.25700
  17        2S          0.18759   0.52144  -0.47125   0.00000  -0.15265
  18 3   H  1S          0.06522  -0.11632   0.70007   0.00000   0.30093
  19        2S         -0.27822   0.39128  -0.20034   0.00000  -0.21998
  20 4   O  1S          0.01437   0.03116   0.02454   0.00000  -0.00602
  21        2S          0.13392  -0.22260   0.00402   0.00000   0.02098
  22        2PX        -0.10806  -0.10844  -0.23609   0.00000  -0.17664
  23        2PY        -0.55211  -0.08910  -0.23797   0.00000  -0.07400
  24        2PZ         0.00000   0.00000   0.00000  -0.85099   0.00000
  25        3S         -0.30994   0.26789  -0.10172   0.00000   0.01178
  26        3PX         0.43045  -0.19012  -0.00255   0.00000   0.28411
  27        3PY         0.21379  -0.02914   0.12469   0.00000   0.05780
  28        3PZ         0.00000   0.00000   0.00000   0.91870   0.00000
  29        4XX        -0.05141   0.08783   0.15432   0.00000  -0.02016
  30        4YY         0.22333  -0.05674  -0.00864   0.00000   0.01455
  31        4ZZ         0.03559  -0.13141  -0.05829   0.00000   0.01402
  32        4XY        -0.06892  -0.07439  -0.04388   0.00000   0.01685
  33        4XZ         0.00000   0.00000   0.00000   0.00967   0.00000
  34        4YZ         0.00000   0.00000   0.00000   0.00904   0.00000
  35 5   H  1S         -0.50371   0.80780   0.69775   0.00000  -0.13643
  36        2S          0.56302  -0.68308  -0.53214   0.00000   0.06196
  37 6   H  1S          0.85188   0.32956   0.22214   0.00000   0.00732
  38        2S         -0.73045  -0.18015  -0.06563   0.00000   0.00038
                          21        22        23        24        25
                           V         V         V         V         V
     Eigenvalues --     0.90001   0.93333   1.05258   1.09955   1.18182
   1 1   O  1S          0.00000   0.01860  -0.02099  -0.02493  -0.02778
   2        2S          0.00000   0.24876  -0.58491  -0.42532  -0.58311
   3        2PX         0.00000  -0.07928  -0.05567  -0.81857  -0.13186
   4        2PY         0.00000   0.12387   0.00954   0.41897  -0.16786
   5        2PZ        -0.85113   0.00000   0.00000   0.00000   0.00000
   6        3S          0.00000  -0.50075   1.29460   1.03440   1.34864
   7        3PX         0.00000   0.10162   0.13100   1.47058   0.33216
   8        3PY         0.00000  -0.36960   0.11650  -0.63603   0.32021
   9        3PZ         0.92437   0.00000   0.00000   0.00000   0.00000
  10        4XX         0.00000   0.06604  -0.16555  -0.18371  -0.23078
  11        4YY         0.00000   0.16138  -0.19987  -0.12874  -0.16773
  12        4ZZ         0.00000   0.01869  -0.14837  -0.08537  -0.10688
  13        4XY         0.00000  -0.09224   0.05121   0.04054   0.05275
  14        4XZ         0.00987   0.00000   0.00000   0.00000   0.00000
  15        4YZ         0.01006   0.00000   0.00000   0.00000   0.00000
  16 2   H  1S          0.00000   0.02292   0.05479  -0.10305  -0.13993
  17        2S          0.00000   0.18375  -0.45337  -1.13399  -0.34475
  18 3   H  1S          0.00000   0.57863  -0.20532  -0.16046  -0.05908
  19        2S          0.00000  -0.53035  -0.05173   0.78386  -0.13866
  20 4   O  1S          0.00000  -0.00713   0.00484   0.01203  -0.06969
  21        2S          0.00000  -0.67005   0.05121   0.30422  -1.40995
  22        2PX         0.00000   0.47958   0.74788  -0.07113  -0.29588
  23        2PY         0.00000   0.32951  -0.51422   0.14951  -0.23773
  24        2PZ         0.44232   0.00000   0.00000   0.00000   0.00000
  25        3S          0.00000   1.15018  -0.14339  -0.66795   3.41881
  26        3PX         0.00000  -0.47966  -1.29067   0.12935   0.67438
  27        3PY         0.00000  -0.48260   0.84438  -0.21247   0.63006
  28        3PZ        -0.48522   0.00000   0.00000   0.00000   0.00000
  29        4XX         0.00000  -0.27878   0.04884   0.08275  -0.49298
  30        4YY         0.00000  -0.15344  -0.00237   0.10279  -0.44376
  31        4ZZ         0.00000  -0.21558   0.00571   0.09731  -0.29254
  32        4XY         0.00000  -0.02601   0.00273  -0.03415   0.13131
  33        4XZ        -0.00259   0.00000   0.00000   0.00000   0.00000
  34        4YZ        -0.00889   0.00000   0.00000   0.00000   0.00000
  35 5   H  1S          0.00000  -0.18072   0.05381  -0.03059  -0.14905
  36        2S          0.00000   0.44782   0.87273  -0.12044  -0.96957
  37 6   H  1S          0.00000   0.39391   0.03124  -0.05809  -0.21578
  38        2S          0.00000  -0.55570  -0.83516   0.35911  -0.65023
                          26        27        28        29        30
                           V         V         V         V         V
     Eigenvalues --     1.41718   1.72225   1.74186   1.74249   1.74955
   1 1   O  1S         -0.06492   0.00000   0.00000  -0.00072  -0.01073
   2        2S         -1.28489   0.00000   0.00000   0.10953  -0.24583
   3        2PX         0.12330   0.00000   0.00000  -0.03249   0.02937
   4        2PY        -0.42263   0.00000   0.00000   0.05821  -0.06750
   5        2PZ         0.00000   0.00417   0.00033   0.00000   0.00000
   6        3S          3.36117   0.00000   0.00000  -0.25077   0.64131
   7        3PX        -0.20853   0.00000   0.00000   0.12677  -0.01927
   8        3PY         1.13183   0.00000   0.00000  -0.09346   0.26238
   9        3PZ         0.00000  -0.00568  -0.00039   0.00000   0.00000
  10        4XX        -0.47058   0.00000   0.00000   0.05706  -0.06389
  11        4YY        -0.34968   0.00000   0.00000  -0.29457  -0.42974
  12        4ZZ        -0.19786   0.00000   0.00000   0.28113   0.34936
  13        4XY         0.12672   0.00000   0.00000  -0.56650  -0.59929
  14        4XZ         0.00000  -0.00553   0.80991   0.00000   0.00000
  15        4YZ         0.00000   0.00181  -0.58648   0.00000   0.00000
  16 2   H  1S         -0.18377   0.00000   0.00000  -0.04868  -0.07638
  17        2S         -0.08385   0.00000   0.00000  -0.06030   0.00456
  18 3   H  1S          0.09318   0.00000   0.00000  -0.11116  -0.01095
  19        2S         -2.18314   0.00000   0.00000   0.36248  -0.44925
  20 4   O  1S          0.04002   0.00000   0.00000   0.00074  -0.00032
  21        2S          0.42302   0.00000   0.00000   0.02849  -0.00587
  22        2PX         0.00285   0.00000   0.00000  -0.00001   0.00779
  23        2PY         0.39321   0.00000   0.00000  -0.04527   0.04094
  24        2PZ         0.00000   0.00042  -0.00419   0.00000   0.00000
  25        3S         -1.48327   0.00000   0.00000  -0.01978  -0.03621
  26        3PX        -0.08010   0.00000   0.00000  -0.03789   0.01313
  27        3PY        -1.02684   0.00000   0.00000   0.04161  -0.05778
  28        3PZ         0.00000  -0.00133   0.00553   0.00000   0.00000
  29        4XX         0.09377   0.00000   0.00000   0.00710   0.00429
  30        4YY         0.29183   0.00000   0.00000   0.34267  -0.30172
  31        4ZZ        -0.01814   0.00000   0.00000  -0.33864   0.29069
  32        4XY         0.04171   0.00000   0.00000   0.63565  -0.54723
  33        4XZ         0.00000   0.81431   0.00834   0.00000   0.00000
  34        4YZ         0.00000  -0.58039   0.00213   0.00000   0.00000
  35 5   H  1S          0.00623   0.00000   0.00000   0.07213  -0.06608
  36        2S          1.02956   0.00000   0.00000  -0.14647   0.19606
  37 6   H  1S          0.43347   0.00000   0.00000   0.02360   0.00347
  38        2S          0.30956   0.00000   0.00000   0.00363  -0.01326
                          31        32        33        34        35
                           V         V         V         V         V
     Eigenvalues --     1.76960   1.78644   2.27996   2.32038   2.59381
   1 1   O  1S          0.00000   0.00000   0.00525  -0.04670  -0.00816
   2        2S          0.00000   0.00000   0.06113  -0.60847  -0.04905
   3        2PX         0.00000   0.00000  -0.00142  -0.00501  -0.03553
   4        2PY         0.00000   0.00000   0.00312  -0.07364   0.01398
   5        2PZ        -0.00171  -0.00725   0.00000   0.00000   0.00000
   6        3S          0.00000   0.00000  -0.18294   1.74313   0.20245
   7        3PX         0.00000   0.00000  -0.04923   0.33369   0.68662
   8        3PY         0.00000   0.00000  -0.05788   0.67656  -0.39803
   9        3PZ         0.00238  -0.03429   0.00000   0.00000   0.00000
  10        4XX         0.00000   0.00000  -0.08954   0.53937   0.89691
  11        4YY         0.00000   0.00000  -0.00639   0.24029  -0.88660
  12        4ZZ         0.00000   0.00000   0.12515  -1.06009  -0.06894
  13        4XY         0.00000   0.00000   0.04722  -0.47724   0.34469
  14        4XZ        -0.00486   0.58607   0.00000   0.00000   0.00000
  15        4YZ         0.00437   0.80935   0.00000   0.00000   0.00000
  16 2   H  1S          0.00000   0.00000   0.11156  -0.83459  -0.87259
  17        2S          0.00000   0.00000   0.01249  -0.08260   0.00675
  18 3   H  1S          0.00000   0.00000   0.08020  -0.77919   0.76936
  19        2S          0.00000   0.00000   0.03936  -0.44381  -0.13405
  20 4   O  1S          0.00000   0.00000  -0.05152   0.00415   0.00120
  21        2S          0.00000   0.00000  -0.49025  -0.04562  -0.01909
  22        2PX         0.00000   0.00000  -0.02622  -0.01120  -0.01564
  23        2PY         0.00000   0.00000  -0.04373   0.04701   0.02984
  24        2PZ        -0.00726   0.00065   0.00000   0.00000   0.00000
  25        3S          0.00000   0.00000   1.51296  -0.00532   0.01120
  26        3PX         0.00000   0.00000   0.39977  -0.02258   0.41711
  27        3PY         0.00000   0.00000   0.56409  -0.02895  -0.32738
  28        3PZ        -0.03361  -0.00086   0.00000   0.00000   0.00000
  29        4XX         0.00000   0.00000   0.55038  -0.02262   0.55366
  30        4YY         0.00000   0.00000   0.22482   0.15303  -0.53030
  31        4ZZ         0.00000   0.00000  -1.08739  -0.09217  -0.01401
  32        4XY         0.00000   0.00000  -0.46968  -0.14169   0.20543
  33        4XZ         0.57993   0.00100   0.00000   0.00000   0.00000
  34        4YZ         0.81377  -0.00152   0.00000   0.00000   0.00000
  35 5   H  1S          0.00000   0.00000  -0.82084  -0.02587  -0.52079
  36        2S          0.00000   0.00000  -0.15057   0.19476   0.03300
  37 6   H  1S          0.00000   0.00000  -0.80602  -0.13404   0.49811
  38        2S          0.00000   0.00000  -0.13255   0.01282   0.00667
                          36        37        38
                           V         V         V
     Eigenvalues --     2.60670   3.55568   3.66601
   1 1   O  1S          0.00930  -0.01193  -0.49194
   2        2S          0.14159  -0.01708   0.11754
   3        2PX        -0.01090  -0.01104  -0.04348
   4        2PY         0.02975  -0.01256  -0.13842
   5        2PZ         0.00000   0.00000   0.00000
   6        3S         -0.44286   0.13400   4.33293
   7        3PX         0.37624   0.04477   0.10620
   8        3PY        -0.45384   0.03004   0.47902
   9        3PZ         0.00000   0.00000   0.00000
  10        4XX         0.50297  -0.01628  -1.61569
  11        4YY        -0.56514  -0.04098  -1.59205
  12        4ZZ         0.11667  -0.05506  -1.68219
  13        4XY         0.26274  -0.00019  -0.03707
  14        4XZ         0.00000   0.00000   0.00000
  15        4YZ         0.00000   0.00000   0.00000
  16 2   H  1S         -0.38178  -0.04388   0.09181
  17        2S         -0.01015  -0.00986  -0.53258
  18 3   H  1S          0.58915   0.01480   0.11669
  19        2S          0.34165  -0.00224  -1.08920
  20 4   O  1S         -0.00349  -0.47094   0.01303
  21        2S         -0.06119   0.26704   0.02056
  22        2PX         0.01756  -0.06777   0.00314
  23        2PY        -0.04952  -0.09393   0.04856
  24        2PZ         0.00000   0.00000   0.00000
  25        3S          0.21211   3.76531  -0.26108
  26        3PX        -0.60745   0.18641  -0.02445
  27        3PY         0.56698   0.26337  -0.19116
  28        3PZ         0.00000   0.00000   0.00000
  29        4XX        -0.88039  -1.55529   0.04742
  30        4YY         0.88590  -1.55168   0.01931
  31        4ZZ        -0.02544  -1.58378   0.03996
  32        4XY        -0.34503  -0.01529  -0.03568
  33        4XZ         0.00000   0.00000   0.00000
  34        4YZ         0.00000   0.00000   0.00000
  35 5   H  1S          0.83115   0.14285  -0.03037
  36        2S         -0.25971  -0.60366   0.37411
  37 6   H  1S         -0.87803   0.12211   0.08756
  38        2S          0.01210  -0.57148   0.00785
     Density Matrix:
                           1         2         3         4         5
   1 1   O  1S          2.07421
   2        2S         -0.17467   0.50049
   3        2PX         0.02629  -0.04431   0.57452
   4        2PY         0.03623  -0.06330   0.05814   0.61195
   5        2PZ         0.00000   0.00000   0.00000   0.00000   0.83020
   6        3S         -0.23285   0.55445  -0.19519  -0.26232   0.00000
   7        3PX         0.02320  -0.04455   0.32638   0.08087   0.00000
   8        3PY         0.03241  -0.06194   0.08274   0.38967   0.00000
   9        3PZ         0.00000   0.00000   0.00000   0.00000   0.65249
  10        4XX        -0.02043   0.01076   0.04046  -0.00230   0.00000
  11        4YY        -0.01662   0.00275  -0.00354   0.05170   0.00000
  12        4ZZ        -0.01089  -0.01101  -0.00217  -0.00391   0.00000
  13        4XY         0.00662  -0.01381   0.02895   0.01809   0.00000
  14        4XZ         0.00000   0.00000   0.00000   0.00000   0.02643
  15        4YZ         0.00000   0.00000   0.00000   0.00000   0.03651
  16 2   H  1S         -0.03436   0.08317   0.31306   0.00869   0.00000
  17        2S          0.01432  -0.03269   0.18925   0.02493   0.00000
  18 3   H  1S         -0.03537   0.08437  -0.09635   0.29846   0.00000
  19        2S          0.01542  -0.03764  -0.04097   0.16585   0.00000
  20 4   O  1S         -0.00054  -0.00168  -0.00181   0.00827   0.00000
  21        2S          0.00218   0.00077   0.00847  -0.01447   0.00000
  22        2PX         0.00093  -0.00649   0.00575  -0.03957   0.00000
  23        2PY        -0.00491   0.00101  -0.01038   0.01594   0.00000
  24        2PZ         0.00000   0.00000   0.00000   0.00000  -0.00702
  25        3S         -0.00185   0.01218  -0.00402  -0.05589   0.00000
  26        3PX        -0.00225   0.00111  -0.00506  -0.03595   0.00000
  27        3PY        -0.00073  -0.00583   0.00081   0.00524   0.00000
  28        3PZ         0.00000   0.00000   0.00000   0.00000  -0.00019
  29        4XX         0.00062  -0.00138   0.00214  -0.00178   0.00000
  30        4YY         0.00031  -0.00125   0.00105   0.00500   0.00000
  31        4ZZ         0.00070  -0.00146   0.00223   0.00254   0.00000
  32        4XY        -0.00006  -0.00062   0.00054  -0.00353   0.00000
  33        4XZ         0.00000   0.00000   0.00000   0.00000   0.00028
  34        4YZ         0.00000   0.00000   0.00000   0.00000  -0.00070
  35 5   H  1S          0.00238  -0.00609   0.00501  -0.00816   0.00000
  36        2S          0.00349  -0.00670   0.01537   0.03821   0.00000
  37 6   H  1S         -0.00248   0.00274  -0.00689   0.01733   0.00000
  38        2S         -0.00185   0.00142  -0.00889   0.01218   0.00000
                           6         7         8         9        10
   6        3S          0.71278
   7        3PX        -0.14591   0.18967
   8        3PY        -0.19760   0.07751   0.25343
   9        3PZ         0.00000   0.00000   0.00000   0.51285
  10        4XX         0.00253   0.02210   0.00112   0.00000   0.00346
  11        4YY        -0.01172   0.00188   0.03186   0.00000  -0.00043
  12        4ZZ        -0.01020  -0.00116  -0.00239   0.00000  -0.00026
  13        4XY        -0.02651   0.01795   0.01409   0.00000   0.00160
  14        4XZ         0.00000   0.00000   0.00000   0.02077   0.00000
  15        4YZ         0.00000   0.00000   0.00000   0.02870   0.00000
  16 2   H  1S          0.01308   0.17289   0.02655   0.00000   0.02524
  17        2S         -0.08435   0.10847   0.03178   0.00000   0.01275
  18 3   H  1S          0.02073  -0.03346   0.17557   0.00000  -0.00701
  19        2S         -0.08915  -0.00863   0.09856   0.00000  -0.00469
  20 4   O  1S          0.01215  -0.00121   0.01062   0.00000  -0.00133
  21        2S         -0.02728   0.00552  -0.01898   0.00000   0.00276
  22        2PX         0.01175   0.00267  -0.02262   0.00000  -0.00051
  23        2PY         0.05977  -0.00776   0.03114   0.00000  -0.00492
  24        2PZ         0.00000   0.00000   0.00000  -0.00060   0.00000
  25        3S         -0.02538  -0.00428  -0.05502   0.00000   0.00430
  26        3PX         0.02171  -0.00455  -0.02063   0.00000  -0.00092
  27        3PY         0.03126  -0.00082   0.01755   0.00000  -0.00278
  28        3PZ         0.00000   0.00000   0.00000   0.00370   0.00000
  29        4XX        -0.00195   0.00134  -0.00119   0.00000   0.00013
  30        4YY         0.00179   0.00072   0.00503   0.00000  -0.00031
  31        4ZZ        -0.00230   0.00144   0.00199   0.00000   0.00007
  32        4XY         0.00275   0.00004  -0.00133   0.00000  -0.00014
  33        4XZ         0.00000   0.00000   0.00000   0.00038   0.00000
  34        4YZ         0.00000   0.00000   0.00000  -0.00034   0.00000
  35 5   H  1S         -0.00847   0.00414  -0.00645   0.00000   0.00018
  36        2S         -0.01304   0.01215   0.02802   0.00000  -0.00014
  37 6   H  1S          0.02288  -0.00429   0.01909   0.00000  -0.00203
  38        2S          0.01726  -0.00526   0.01327   0.00000  -0.00181
                          11        12        13        14        15
  11        4YY         0.00476
  12        4ZZ        -0.00034   0.00045
  13        4XY         0.00096   0.00003   0.00205
  14        4XZ         0.00000   0.00000   0.00000   0.00084
  15        4YZ         0.00000   0.00000   0.00000   0.00116   0.00161
  16 2   H  1S         -0.00219  -0.00341   0.01303   0.00000   0.00000
  17        2S         -0.00096  -0.00039   0.01004   0.00000   0.00000
  18 3   H  1S          0.02878  -0.00389   0.00066   0.00000   0.00000
  19        2S          0.01483   0.00040   0.00267   0.00000   0.00000
  20 4   O  1S          0.00022  -0.00135   0.00005   0.00000   0.00000
  21        2S         -0.00059   0.00242   0.00023   0.00000   0.00000
  22        2PX        -0.00528  -0.00091  -0.00017   0.00000   0.00000
  23        2PY        -0.00069  -0.00449   0.00011   0.00000   0.00000
  24        2PZ         0.00000   0.00000   0.00000  -0.00056   0.00035
  25        3S         -0.00261   0.00459  -0.00170   0.00000   0.00000
  26        3PX        -0.00411  -0.00076  -0.00089   0.00000   0.00000
  27        3PY        -0.00116  -0.00278   0.00045   0.00000   0.00000
  28        3PZ         0.00000   0.00000   0.00000  -0.00027   0.00051
  29        4XX        -0.00030   0.00002   0.00012   0.00000   0.00000
  30        4YY         0.00024  -0.00035   0.00021   0.00000   0.00000
  31        4ZZ         0.00016  -0.00004   0.00019   0.00000   0.00000
  32        4XY        -0.00047  -0.00017  -0.00003   0.00000   0.00000
  33        4XZ         0.00000   0.00000   0.00000   0.00000   0.00003
  34        4YZ         0.00000   0.00000   0.00000  -0.00004   0.00000
  35 5   H  1S         -0.00159   0.00002   0.00040   0.00000   0.00000
  36        2S          0.00224  -0.00117   0.00186   0.00000   0.00000
  37 6   H  1S          0.00098  -0.00167   0.00012   0.00000   0.00000
  38        2S          0.00072  -0.00126  -0.00013   0.00000   0.00000
                          16        17        18        19        20
  16 2   H  1S          0.19401
  17        2S          0.09913   0.06309
  18 3   H  1S         -0.04126  -0.03260   0.19711
  19        2S         -0.03361  -0.01189   0.08927   0.06429
  20 4   O  1S         -0.00207   0.00115   0.00301  -0.01708   2.07427
  21        2S          0.00611  -0.00055  -0.00580   0.03385  -0.17365
  22        2PX         0.00167   0.00525  -0.00388  -0.02394   0.02692
  23        2PY        -0.00827   0.00202   0.00194  -0.07503   0.03700
  24        2PZ         0.00000   0.00000   0.00000   0.00000   0.00000
  25        3S          0.00335  -0.00819  -0.02430   0.05692  -0.23734
  26        3PX        -0.00262   0.00035  -0.00745  -0.02200   0.02058
  27        3PY        -0.00243   0.00414  -0.00282  -0.04997   0.03198
  28        3PZ         0.00000   0.00000   0.00000   0.00000   0.00000
  29        4XX         0.00091   0.00087  -0.00009  -0.00014  -0.02034
  30        4YY         0.00005   0.00080   0.00116  -0.00504  -0.01646
  31        4ZZ         0.00089   0.00084   0.00045  -0.00008  -0.01045
  32        4XY         0.00012   0.00052  -0.00151  -0.00431   0.00697
  33        4XZ         0.00000   0.00000   0.00000   0.00000   0.00000
  34        4YZ         0.00000   0.00000   0.00000   0.00000   0.00000
  35 5   H  1S          0.00142   0.00292   0.00549   0.00045  -0.03485
  36        2S          0.00604   0.00724   0.02173  -0.00312   0.02597
  37 6   H  1S         -0.00445  -0.00082   0.00339  -0.02560  -0.03444
  38        2S         -0.00552  -0.00162   0.00395  -0.01841   0.01209
                          21        22        23        24        25
  21        2S          0.49818
  22        2PX        -0.04339   0.56995
  23        2PY        -0.05629   0.06007   0.62016
  24        2PZ         0.00000   0.00000   0.00000   0.83232
  25        3S          0.55627  -0.20664  -0.29454   0.00000   0.74633
  26        3PX        -0.03709   0.32104   0.07040   0.00000  -0.14149
  27        3PY        -0.05673   0.07892   0.38557   0.00000  -0.21628
  28        3PZ         0.00000   0.00000   0.00000   0.65220   0.00000
  29        4XX         0.01118   0.04055   0.00043   0.00000   0.00186
  30        4YY         0.00348  -0.00324   0.05383   0.00000  -0.01467
  31        4ZZ        -0.01142  -0.00115  -0.00053   0.00000  -0.01155
  32        4XY        -0.01424   0.02831   0.01833   0.00000  -0.02833
  33        4XZ         0.00000   0.00000   0.00000   0.02654   0.00000
  34        4YZ         0.00000   0.00000   0.00000   0.03559   0.00000
  35 5   H  1S          0.08533   0.31346   0.00958   0.00000   0.00882
  36        2S         -0.05480   0.20410   0.06627   0.00000  -0.13519
  37 6   H  1S          0.08606  -0.09252   0.29859   0.00000   0.00725
  38        2S         -0.02684  -0.04079   0.17107   0.00000  -0.07925
                          26        27        28        29        30
  26        3PX         0.18366
  27        3PY         0.06724   0.24368
  28        3PZ         0.00000   0.00000   0.51110
  29        4XX         0.02228   0.00273   0.00000   0.00346
  30        4YY         0.00114   0.03256   0.00000  -0.00019   0.00508
  31        4ZZ        -0.00053   0.00007   0.00000  -0.00027  -0.00007
  32        4XY         0.01712   0.01380   0.00000   0.00160   0.00100
  33        4XZ         0.00000   0.00000   0.02080   0.00000   0.00000
  34        4YZ         0.00000   0.00000   0.02788   0.00000   0.00000
  35 5   H  1S          0.17265   0.02477   0.00000   0.02564  -0.00196
  36        2S          0.11699   0.05707   0.00000   0.01337   0.00251
  37 6   H  1S         -0.03587   0.17257   0.00000  -0.00543   0.02951
  38        2S         -0.01225   0.10263   0.00000  -0.00443   0.01548
                          31        32        33        34        35
  31        4ZZ         0.00039
  32        4XY         0.00018   0.00204
  33        4XZ         0.00000   0.00000   0.00085
  34        4YZ         0.00000   0.00000   0.00113   0.00152
  35 5   H  1S         -0.00300   0.01254   0.00000   0.00000   0.19733
  36        2S          0.00059   0.01185   0.00000   0.00000   0.10420
  37 6   H  1S         -0.00241   0.00078   0.00000   0.00000  -0.03952
  38        2S          0.00032   0.00267   0.00000   0.00000  -0.03233
                          36        37        38
  36        2S          0.08317
  37 6   H  1S         -0.01795   0.19248
  38        2S         -0.00056   0.09152   0.05356
    Full Mulliken population analysis:
                           1         2         3         4         5
   1 1   O  1S          2.07421
   2        2S         -0.04082   0.50049
   3        2PX         0.00000   0.00000   0.57452
   4        2PY         0.00000   0.00000   0.00000   0.61195
   5        2PZ         0.00000   0.00000   0.00000   0.00000   0.83020
   6        3S         -0.03895   0.42340   0.00000   0.00000   0.00000
   7        3PX         0.00000   0.00000   0.16369   0.00000   0.00000
   8        3PY         0.00000   0.00000   0.00000   0.19543   0.00000
   9        3PZ         0.00000   0.00000   0.00000   0.00000   0.32724
  10        4XX        -0.00069   0.00589   0.00000   0.00000   0.00000
  11        4YY        -0.00056   0.00150   0.00000   0.00000   0.00000
  12        4ZZ        -0.00036  -0.00602   0.00000   0.00000   0.00000
  13        4XY         0.00000   0.00000   0.00000   0.00000   0.00000
  14        4XZ         0.00000   0.00000   0.00000   0.00000   0.00000
  15        4YZ         0.00000   0.00000   0.00000   0.00000   0.00000
  16 2   H  1S         -0.00119   0.02056   0.08962   0.00000   0.00000
  17        2S          0.00099  -0.01241   0.02797   0.00000   0.00000
  18 3   H  1S         -0.00123   0.02086   0.00921   0.08054   0.00000
  19        2S          0.00106  -0.01428   0.00202   0.02311   0.00000
  20 4   O  1S          0.00000   0.00000   0.00000   0.00000   0.00000
  21        2S          0.00000   0.00000   0.00000   0.00000   0.00000
  22        2PX         0.00000   0.00000   0.00000   0.00000   0.00000
  23        2PY         0.00000   0.00000   0.00000   0.00000   0.00000
  24        2PZ         0.00000   0.00000   0.00000   0.00000   0.00000
  25        3S          0.00000   0.00000   0.00000  -0.00002   0.00000
  26        3PX         0.00000   0.00000   0.00000  -0.00005   0.00000
  27        3PY         0.00000   0.00001   0.00000  -0.00001   0.00000
  28        3PZ         0.00000   0.00000   0.00000   0.00000   0.00000
  29        4XX         0.00000   0.00000   0.00000   0.00000   0.00000
  30        4YY         0.00000   0.00000   0.00000   0.00000   0.00000
  31        4ZZ         0.00000   0.00000   0.00000   0.00000   0.00000
  32        4XY         0.00000   0.00000   0.00000   0.00000   0.00000
  33        4XZ         0.00000   0.00000   0.00000   0.00000   0.00000
  34        4YZ         0.00000   0.00000   0.00000   0.00000   0.00000
  35 5   H  1S          0.00000   0.00000   0.00000   0.00000   0.00000
  36        2S          0.00001  -0.00010  -0.00009   0.00056   0.00000
  37 6   H  1S          0.00000   0.00000   0.00000   0.00000   0.00000
  38        2S          0.00000   0.00000   0.00000   0.00000   0.00000
                           6         7         8         9        10
   6        3S          0.71278
   7        3PX         0.00000   0.18967
   8        3PY         0.00000   0.00000   0.25343
   9        3PZ         0.00000   0.00000   0.00000   0.51285
  10        4XX         0.00177   0.00000   0.00000   0.00000   0.00346
  11        4YY        -0.00819   0.00000   0.00000   0.00000  -0.00014
  12        4ZZ        -0.00713   0.00000   0.00000   0.00000  -0.00009
  13        4XY         0.00000   0.00000   0.00000   0.00000   0.00000
  14        4XZ         0.00000   0.00000   0.00000   0.00000   0.00000
  15        4YZ         0.00000   0.00000   0.00000   0.00000   0.00000
  16 2   H  1S          0.00557   0.10087   0.00000   0.00000   0.01400
  17        2S         -0.05759   0.05222   0.00000   0.00000   0.00600
  18 3   H  1S          0.00884   0.00652   0.09656   0.00000  -0.00147
  19        2S         -0.06087   0.00139   0.04472   0.00000  -0.00191
  20 4   O  1S          0.00000   0.00000   0.00000   0.00000   0.00000
  21        2S         -0.00001  -0.00001  -0.00002   0.00000   0.00000
  22        2PX         0.00000   0.00000  -0.00003   0.00000   0.00000
  23        2PY        -0.00003  -0.00001  -0.00005   0.00000   0.00000
  24        2PZ         0.00000   0.00000   0.00000   0.00000   0.00000
  25        3S         -0.00017   0.00006  -0.00093   0.00000   0.00001
  26        3PX         0.00029   0.00009  -0.00068   0.00000   0.00000
  27        3PY        -0.00053  -0.00003  -0.00062   0.00000   0.00001
  28        3PZ         0.00000   0.00000   0.00000   0.00003   0.00000
  29        4XX         0.00000   0.00000  -0.00001   0.00000   0.00000
  30        4YY         0.00000   0.00000   0.00003   0.00000   0.00000
  31        4ZZ         0.00000   0.00000   0.00000   0.00000   0.00000
  32        4XY         0.00000   0.00000   0.00001   0.00000   0.00000
  33        4XZ         0.00000   0.00000   0.00000   0.00000   0.00000
  34        4YZ         0.00000   0.00000   0.00000   0.00000   0.00000
  35 5   H  1S         -0.00004  -0.00003  -0.00011   0.00000   0.00000
  36        2S         -0.00084  -0.00059   0.00336   0.00000   0.00000
  37 6   H  1S          0.00000   0.00000   0.00000   0.00000   0.00000
  38        2S          0.00003   0.00002   0.00007   0.00000   0.00000
                          11        12        13        14        15
  11        4YY         0.00476
  12        4ZZ        -0.00011   0.00045
  13        4XY         0.00000   0.00000   0.00205
  14        4XZ         0.00000   0.00000   0.00000   0.00084
  15        4YZ         0.00000   0.00000   0.00000   0.00000   0.00161
  16 2   H  1S         -0.00036  -0.00057   0.00000   0.00000   0.00000
  17        2S         -0.00038  -0.00015   0.00000   0.00000   0.00000
  18 3   H  1S          0.01472  -0.00065  -0.00014   0.00000   0.00000
  19        2S          0.00685   0.00016  -0.00010   0.00000   0.00000
  20 4   O  1S          0.00000   0.00000   0.00000   0.00000   0.00000
  21        2S          0.00000   0.00000   0.00000   0.00000   0.00000
  22        2PX         0.00000   0.00000   0.00000   0.00000   0.00000
  23        2PY         0.00000   0.00000   0.00000   0.00000   0.00000
  24        2PZ         0.00000   0.00000   0.00000   0.00000   0.00000
  25        3S          0.00000   0.00000   0.00000   0.00000   0.00000
  26        3PX        -0.00002   0.00000   0.00000   0.00000   0.00000
  27        3PY         0.00001   0.00000   0.00000   0.00000   0.00000
  28        3PZ         0.00000   0.00000   0.00000   0.00000   0.00000
  29        4XX         0.00000   0.00000   0.00000   0.00000   0.00000
  30        4YY         0.00000   0.00000   0.00000   0.00000   0.00000
  31        4ZZ         0.00000   0.00000   0.00000   0.00000   0.00000
  32        4XY         0.00000   0.00000   0.00000   0.00000   0.00000
  33        4XZ         0.00000   0.00000   0.00000   0.00000   0.00000
  34        4YZ         0.00000   0.00000   0.00000   0.00000   0.00000
  35 5   H  1S          0.00000   0.00000   0.00000   0.00000   0.00000
  36        2S          0.00009  -0.00002  -0.00003   0.00000   0.00000
  37 6   H  1S          0.00000   0.00000   0.00000   0.00000   0.00000
  38        2S          0.00000   0.00000   0.00000   0.00000   0.00000
                          16        17        18        19        20
  16 2   H  1S          0.19401
  17        2S          0.06526   0.06309
  18 3   H  1S         -0.00176  -0.00678   0.19711
  19        2S         -0.00699  -0.00586   0.05877   0.06429
  20 4   O  1S          0.00000   0.00000   0.00000  -0.00009   2.07427
  21        2S          0.00000   0.00000   0.00000   0.00141  -0.04058
  22        2PX         0.00000   0.00000   0.00000  -0.00064   0.00000
  23        2PY         0.00000   0.00000   0.00000   0.00198   0.00000
  24        2PZ         0.00000   0.00000   0.00000   0.00000   0.00000
  25        3S          0.00000  -0.00003  -0.00046   0.00771  -0.03970
  26        3PX         0.00000   0.00000  -0.00033  -0.00363   0.00000
  27        3PY         0.00000  -0.00003   0.00012   0.00810   0.00000
  28        3PZ         0.00000   0.00000   0.00000   0.00000   0.00000
  29        4XX         0.00000   0.00000   0.00000  -0.00001  -0.00068
  30        4YY         0.00000   0.00000   0.00000  -0.00035  -0.00055
  31        4ZZ         0.00000   0.00000   0.00000   0.00000  -0.00035
  32        4XY         0.00000   0.00000   0.00001   0.00018   0.00000
  33        4XZ         0.00000   0.00000   0.00000   0.00000   0.00000
  34        4YZ         0.00000   0.00000   0.00000   0.00000   0.00000
  35 5   H  1S          0.00000   0.00002   0.00010   0.00007  -0.00121
  36        2S          0.00003   0.00037   0.00327  -0.00126   0.00179
  37 6   H  1S          0.00000   0.00000   0.00000  -0.00013  -0.00119
  38        2S          0.00000   0.00000   0.00002  -0.00094   0.00083
                          21        22        23        24        25
  21        2S          0.49818
  22        2PX         0.00000   0.56995
  23        2PY         0.00000   0.00000   0.62016
  24        2PZ         0.00000   0.00000   0.00000   0.83232
  25        3S          0.42479   0.00000   0.00000   0.00000   0.74633
  26        3PX         0.00000   0.16101   0.00000   0.00000   0.00000
  27        3PY         0.00000   0.00000   0.19337   0.00000   0.00000
  28        3PZ         0.00000   0.00000   0.00000   0.32709   0.00000
  29        4XX         0.00612   0.00000   0.00000   0.00000   0.00130
  30        4YY         0.00190   0.00000   0.00000   0.00000  -0.01026
  31        4ZZ        -0.00625   0.00000   0.00000   0.00000  -0.00807
  32        4XY         0.00000   0.00000   0.00000   0.00000   0.00000
  33        4XZ         0.00000   0.00000   0.00000   0.00000   0.00000
  34        4YZ         0.00000   0.00000   0.00000   0.00000   0.00000
  35 5   H  1S          0.02110   0.08973   0.00000   0.00000   0.00376
  36        2S         -0.02080   0.03017   0.00000   0.00000  -0.09231
  37 6   H  1S          0.02128   0.00884   0.08057   0.00000   0.00309
  38        2S         -0.01019   0.00201   0.02384   0.00000  -0.05412
                          26        27        28        29        30
  26        3PX         0.18366
  27        3PY         0.00000   0.24368
  28        3PZ         0.00000   0.00000   0.51110
  29        4XX         0.00000   0.00000   0.00000   0.00346
  30        4YY         0.00000   0.00000   0.00000  -0.00006   0.00508
  31        4ZZ         0.00000   0.00000   0.00000  -0.00009  -0.00002
  32        4XY         0.00000   0.00000   0.00000   0.00000   0.00000
  33        4XZ         0.00000   0.00000   0.00000   0.00000   0.00000
  34        4YZ         0.00000   0.00000   0.00000   0.00000   0.00000
  35 5   H  1S          0.10073   0.00000   0.00000   0.01422  -0.00033
  36        2S          0.05632   0.00000   0.00000   0.00629   0.00100
  37 6   H  1S          0.00699   0.09491   0.00000  -0.00114   0.01509
  38        2S          0.00197   0.04657   0.00000  -0.00180   0.00715
                          31        32        33        34        35
  31        4ZZ         0.00039
  32        4XY         0.00000   0.00204
  33        4XZ         0.00000   0.00000   0.00085
  34        4YZ         0.00000   0.00000   0.00000   0.00152
  35 5   H  1S         -0.00050   0.00000   0.00000   0.00000   0.19733
  36        2S          0.00024   0.00000   0.00000   0.00000   0.06859
  37 6   H  1S         -0.00040  -0.00016   0.00000   0.00000  -0.00168
  38        2S          0.00013  -0.00010   0.00000   0.00000  -0.00672
                          36        37        38
  36        2S          0.08317
  37 6   H  1S         -0.00373   0.19248
  38        2S         -0.00028   0.06025   0.05356
     Gross orbital populations:
                           1
   1 1   O  1S          1.99247
   2        2S          0.89908
   3        2PX         0.86694
   4        2PY         0.91150
   5        2PZ         1.15743
   6        3S          0.97833
   7        3PX         0.51383
   8        3PY         0.59116
   9        3PZ         0.84011
  10        4XX         0.02683
  11        4YY         0.01815
  12        4ZZ        -0.01449
  13        4XY         0.00178
  14        4XZ         0.00084
  15        4YZ         0.00161
  16 2   H  1S          0.47905
  17        2S          0.13267
  18 3   H  1S          0.48383
  19        2S          0.12474
  20 4   O  1S          1.99253
  21        2S          0.89692
  22        2PX         0.86104
  23        2PY         0.91983
  24        2PZ         1.15942
  25        3S          0.98097
  26        3PX         0.50635
  27        3PY         0.58558
  28        3PZ         0.83822
  29        4XX         0.02759
  30        4YY         0.01869
  31        4ZZ        -0.01493
  32        4XY         0.00196
  33        4XZ         0.00085
  34        4YZ         0.00152
  35 5   H  1S          0.48504
  36        2S          0.13521
  37 6   H  1S          0.47505
  38        2S          0.12230
          Condensed to atoms (all electrons):
               1          2          3          4          5          6
     1  O    8.304942   0.245134   0.235901  -0.002692   0.002172   0.000122
     2  H    0.245134   0.387610  -0.021379  -0.000060   0.000415  -0.000003
     3  H    0.235901  -0.021379   0.378927   0.013983   0.002182  -0.001050
     4  O   -0.002692  -0.000060   0.013983   8.310938   0.210203   0.244167
     5  H    0.002172   0.000415   0.002182   0.210203   0.417684  -0.012413
     6  H    0.000122  -0.000003  -0.001050   0.244167  -0.012413   0.366531
 Mulliken charges:
               1
     1  O   -0.785579
     2  H    0.388282
     3  H    0.391436
     4  O   -0.776540
     5  H    0.379756
     6  H    0.402645
 Sum of Mulliken charges =   0.00000
 Mulliken charges with hydrogens summed into heavy atoms:
               1
     1  O   -0.005861
     4  O    0.005861
 Electronic spatial extent (au):  <R**2>=            400.1159
 Charge=              0.0000 electrons
 Dipole moment (field-independent basis, Debye):
    X=              2.1047    Y=              3.2853    Z=              0.0000  Tot=              3.9016
 Quadrupole moment (field-independent basis, Debye-Ang):
   XX=            -14.7527   YY=            -16.1283   ZZ=            -14.3649
   XY=             -8.2445   XZ=              0.0000   YZ=              0.0000
 Traceless Quadrupole moment (field-independent basis, Debye-Ang):
   XX=              0.3293   YY=             -1.0464   ZZ=              0.7171
   XY=             -8.2445   XZ=              0.0000   YZ=              0.0000
 Octapole moment (field-independent basis, Debye-Ang**2):
  XXX=             56.0266  YYY=             52.7631  ZZZ=              0.0000  XYY=             20.5450
  XXY=             22.0826  XXZ=              0.0000  XZZ=             18.8907  YZZ=             12.5203
  YYZ=              0.0000  XYZ=              0.0000
 Hexadecapole moment (field-independent basis, Debye-Ang**3):
 XXXX=           -226.3686 YYYY=           -231.2636 ZZZZ=            -10.3880 XXXY=            -29.8164
 XXXZ=              0.0000 YYYX=            -30.4579 YYYZ=              0.0000 ZZZX=              0.0000
 ZZZY=              0.0000 XXYY=            -49.5858 XXZZ=            -42.9399 YYZZ=            -37.9137
 XXYZ=              0.0000 YYXZ=              0.0000 ZZXY=              1.6607
 N-N= 3.506580624783D+01 E-N=-4.311717347220D+02  KE= 1.516892840631D+02
 Orbital energies and kinetic energies (alpha):
                                 1                 2
   1         O               -19.150816         29.030300
   2         O               -19.133280         29.029477
   3         O                -1.015095          2.570652
   4         O                -0.996232          2.590032
   5         O                -0.557569          1.697612
   6         O                -0.522646          1.859604
   7         O                -0.377971          2.230011
   8         O                -0.359811          2.236235
   9         O                -0.306360          2.299434
  10         O                -0.288568          2.301284
  11         V                 0.022112          1.271498
  12         V                 0.095097          1.236913
  13         V                 0.134443          1.302515
  14         V                 0.245502          1.460683
  15         V                 0.778846          2.284027
  16         V                 0.821955          2.711916
  17         V                 0.826807          2.598187
  18         V                 0.862058          2.932455
  19         V                 0.871057          3.547562
  20         V                 0.897181          2.976403
  21         V                 0.900011          3.555941
  22         V                 0.933333          2.615262
  23         V                 1.052583          3.490471
  24         V                 1.099550          3.594068
  25         V                 1.181825          2.523706
  26         V                 1.417180          2.967296
  27         V                 1.722250          2.800047
  28         V                 1.741855          2.800053
  29         V                 1.742489          2.826706
  30         V                 1.749550          2.815006
  31         V                 1.769605          2.797269
  32         V                 1.786441          2.797153
  33         V                 2.279957          3.492587
  34         V                 2.320380          3.531111
  35         V                 2.593815          3.916518
  36         V                 2.606700          3.949149
  37         V                 3.555680          9.887577
  38         V                 3.666008         10.101474
 Total kinetic energy from orbitals= 1.516892840631D+02
 No NMR shielding tensors so no spin-rotation constants.
 Leave Link  601 at Sun Mar 22 10:40:40 2015, MaxMem=   134217728 cpu:         0.1
 (Enter /opt/g09_D01_em64t/g09/l701.exe)
 Compute integral first derivatives.
 ... and contract with generalized density number  0.
 Leave Link  701 at Sun Mar 22 10:40:40 2015, MaxMem=   134217728 cpu:         0.1
 (Enter /opt/g09_D01_em64t/g09/l702.exe)
 L702 exits ... SP integral derivatives will be done elsewhere.
 Leave Link  702 at Sun Mar 22 10:40:40 2015, MaxMem=   134217728 cpu:         0.0
 (Enter /opt/g09_D01_em64t/g09/l703.exe)
 Compute integral first derivatives, UseDBF=F ICtDFT=           0.
 Integral derivatives from FoFJK, PRISM(SPDF).
 Calling FoFJK, ICntrl=      2127 FMM=F ISym2X=0 I1Cent= 0 IOpClX= 0 NMat=1 NMatS=1 NMatT=0.
 FoFJK:  IHMeth= 1 ICntrl=    2127 DoSepK=F KAlg= 0 I1Cent=   0 FoldK=F
 IRaf=         0 NMat=   1 IRICut=       1 DoRegI=T DoRafI=F ISym2E= 0.
 FoFCou: FMM=F IPFlag=           0 FMFlag=      100000 FMFlg1=         800
         NFxFlg=           0 DoJE=F BraDBF=F KetDBF=F FulRan=T
         wScrn=  0.000000 ICntrl=    2127 IOpCl=  0 I1Cent=           0 NGrid=           0
         NMat0=    1 NMatS0=      1 NMatT0=    0 NMatD0=    1 NMtDS0=    0 NMtDT0=    0
 Symmetry not used in FoFCou.
 Leave Link  703 at Sun Mar 22 10:40:41 2015, MaxMem=   134217728 cpu:         0.5
 (Enter /opt/g09_D01_em64t/g09/l716.exe)
 Dipole        = 8.28043107D-01 1.29251966D+00-8.38462322D-16
 Cartesian Forces:  Max     0.018852786 RMS     0.008453914
 Leave Link  716 at Sun Mar 22 10:40:41 2015, MaxMem=   134217728 cpu:         0.0
 (Enter /opt/g09_D01_em64t/g09/l120.exe)
 SvSCFP is copying densities from files   528 and   530 to   603.
 ONIOM: saving gridpoint  3
 ONIOM: restoring gridpoint 17
 ONIOM: restoring gridpoint  2 on chk file.
 ONIOM: generating point  2 -- high level on model system.
 ChrgS2: IScale=     5     5     5     5     0     0 (distance 6..1 bonds)
 ChrgS2:  Scale=  1.00  1.00  1.00  1.00  0.00  0.00 (distance 6..1 bonds)

 --------------------------------------------------------------------------------
 #P Test IOp(2/15=1,5/32=2,5/38=1) B3LYP/6-31G(D,P) TD(SINGLET,NSTATES=3,ROOT=1)

 ch2nh2 iop(9/40=20)
 Point  2 -- high level on model system.

 0,1
  O                                                -0.368705030000     -2.194244570000      0.000000000000
  H                                                 0.591294970000     -2.194244570000      0.000000000000
  H                                                -0.689159620000     -1.289308740000      0.000000000000
  O-#6                                             -2.347122270000      0.341726610000      0.000000000000
  H-#6                                             -1.387122270000      0.341726610000      0.000000000000
  H-#6                                             -2.667576860000      1.246662440000      0.000000000000

 1 2 1.000 3 1.000
 2 1 1.000
 3 1 1.000
 4 5 1.000 6 1.000
 5 4 1.000
 6 4 1.000
 
 --------------------------------------------------------------------------------

 Leave Link  120 at Sun Mar 22 10:40:41 2015, MaxMem=   134217728 cpu:         0.0
 (Enter /opt/g09_D01_em64t/g09/l301.exe)
 Standard basis: 6-31G(d,p) (6D, 7F)
 Ernie: Thresh=  0.10000D-02 Tol=  0.10000D-05 Strict=F.
    25 basis functions,    42 primitive gaussians,    25 cartesian basis functions
     5 alpha electrons        5 beta electrons
       nuclear repulsion energy         9.1571159831 Hartrees.
 IExCor=  402 DFT=T Ex+Corr=B3LYP ExCW=0 ScaHFX=  0.200000
 ScaDFX=  0.800000  0.720000  1.000000  0.810000 ScalE2=  1.000000  1.000000
 IRadAn=      0 IRanWt=     -1 IRanGd=            0 ICorTp=0 IEmpDi=  4
 NAtoms=    6 NActive=    3 NUniq=    3 SFac= 1.00D+00 NAtFMM=   60 NAOKFM=F Big=F
 Integral buffers will be    131072 words long.
 Regular integral format.
 Two-electron integral symmetry is turned off.
 Leave Link  301 at Sun Mar 22 10:40:41 2015, MaxMem=   134217728 cpu:         0.0
 (Enter /opt/g09_D01_em64t/g09/l302.exe)
 NPDir=0 NMtPBC=     1 NCelOv=     1 NCel=       1 NClECP=     1 NCelD=      1
         NCelK=      1 NCelE2=     1 NClLst=     1 CellRange=     0.0.
 One-electron integrals computed using PRISM.
 NBasis=    25 RedAO= T EigKep=  2.21D-02  NBF=    25
 NBsUse=    25 1.00D-06 EigRej= -1.00D+00 NBFU=    25
 Precomputing XC quadrature grid using
 IXCGrd= 4 IRadAn=           0 IRanWt=          -1 IRanGd=           0 AccXCQ= 0.00D+00.
 Generated NRdTot=       0 NPtTot=           0 NUsed=           0 NTot=          32
 NSgBfM=    25    25    25    25    25 MxSgAt=     3 MxSgA2=     3.
 Leave Link  302 at Sun Mar 22 10:40:41 2015, MaxMem=   134217728 cpu:         0.1
 (Enter /opt/g09_D01_em64t/g09/l308.exe)
 Leave Link  308 at Sun Mar 22 10:40:41 2015, MaxMem=   134217728 cpu:         0.0
 (Enter /opt/g09_D01_em64t/g09/l303.exe)
 DipDrv:  MaxL=1.
 Leave Link  303 at Sun Mar 22 10:40:41 2015, MaxMem=   134217728 cpu:         0.0
 (Enter /opt/g09_D01_em64t/g09/l401.exe)
 ExpMin= 1.61D-01 ExpMax= 5.48D+03 ExpMxC= 8.25D+02 IAcc=1 IRadAn=         1 AccDes= 0.00D+00
 Harris functional with IExCor=  402 and IRadAn=       1 diagonalized for initial guess.
 HarFok:  IExCor=  402 AccDes= 0.00D+00 IRadAn=         1 IDoV= 1 UseB2=F ITyADJ=14
 ICtDFT=  3500011 ScaDFX=  1.000000  1.000000  1.000000  1.000000
 FoFCou: FMM=F IPFlag=           0 FMFlag=      100000 FMFlg1=           0
         NFxFlg=           0 DoJE=T BraDBF=F KetDBF=T FulRan=T
         wScrn=  0.000000 ICntrl=     500 IOpCl=  0 I1Cent=   200000004 NGrid=           0
         NMat0=    1 NMatS0=      1 NMatT0=    0 NMatD0=    1 NMtDS0=    0 NMtDT0=    0
 Symmetry not used in FoFCou.
 Harris En= -76.4587214585236    
 JPrj=0 DoOrth=F DoCkMO=F.
 Leave Link  401 at Sun Mar 22 10:40:41 2015, MaxMem=   134217728 cpu:         0.1
 (Enter /opt/g09_D01_em64t/g09/l502.exe)
 Closed shell SCF:
 Using DIIS extrapolation, IDIIS=  1040.
 Two-electron integral symmetry not used.
 Keep R1 ints in memory in canonical form, NReq=933384.
 IVT=       20737 IEndB=       20737 NGot=   134217728 MDV=   134144017
 LenX=   134144017 LenY=   134142951
 Requested convergence on RMS density matrix=1.00D-08 within 128 cycles.
 Requested convergence on MAX density matrix=1.00D-06.
 Requested convergence on             energy=1.00D-06.
 No special actions if energy rises.
 FoFCou: FMM=F IPFlag=           0 FMFlag=           0 FMFlg1=           0
         NFxFlg=           0 DoJE=F BraDBF=F KetDBF=F FulRan=T
         wScrn=  0.000000 ICntrl=     600 IOpCl=  0 I1Cent=           0 NGrid=           0
         NMat0=    1 NMatS0=    325 NMatT0=    0 NMatD0=    1 NMtDS0=    0 NMtDT0=    0
 Symmetry not used in FoFCou.
 Integral accuracy reduced to 1.0D-05 until final iterations.

 Cycle   1  Pass 0  IDiag  1:
 E= -76.3402780268370    
 DIIS: error= 6.03D-02 at cycle   1 NSaved=   1.
 NSaved= 1 IEnMin= 1 EnMin= -76.3402780268370     IErMin= 1 ErrMin= 6.03D-02
 ErrMax= 6.03D-02  0.00D+00 EMaxC= 1.00D-01 BMatC= 1.07D-01 BMatP= 1.07D-01
 IDIUse=3 WtCom= 3.97D-01 WtEn= 6.03D-01
 Coeff-Com:  0.100D+01
 Coeff-En:   0.100D+01
 Coeff:      0.100D+01
 Gap=     0.214 Goal=   None    Shift=    0.000
 GapD=    0.214 DampG=1.000 DampE=0.500 DampFc=0.5000 IDamp=-1.
 Damping current iteration by 5.00D-01
 RMSDP=2.20D-02 MaxDP=2.19D-01              OVMax= 1.98D-01

 Cycle   2  Pass 0  IDiag  1:
[...]
  19        2S         -0.05563   0.00132   0.05017   0.00000  -0.00197
                          11        12        13        14        15
  11        4YY         0.00496
  12        4ZZ        -0.00008   0.00035
  13        4XY         0.00000   0.00000   0.00200
  14        4XZ         0.00000   0.00000   0.00000   0.00078
  15        4YZ         0.00000   0.00000   0.00000   0.00000   0.00157
  16 2   H  1S         -0.00031  -0.00050   0.00000   0.00000   0.00000
  17        2S         -0.00042  -0.00006   0.00000   0.00000   0.00000
  18 3   H  1S          0.01495  -0.00050  -0.00005   0.00000   0.00000
  19        2S          0.00750  -0.00006  -0.00010   0.00000   0.00000
                          16        17        18        19
  16 2   H  1S          0.19297
  17        2S          0.06362   0.06016
  18 3   H  1S         -0.00168  -0.00677   0.19297
  19        2S         -0.00677  -0.00577   0.06362   0.06016
     Gross orbital populations:
                           1
   1 1   O  1S          1.99252
   2        2S          0.89901
   3        2PX         0.86732
   4        2PY         0.91668
   5        2PZ         1.15604
   6        3S          0.96675
   7        3PX         0.51996
   8        3PY         0.58915
   9        3PZ         0.84161
  10        4XX         0.02810
  11        4YY         0.01898
  12        4ZZ        -0.01357
  13        4XY         0.00185
  14        4XZ         0.00078
  15        4YZ         0.00157
  16 2   H  1S          0.47765
  17        2S          0.12897
  18 3   H  1S          0.47765
  19        2S          0.12897
          Condensed to atoms (all electrons):
               1          2          3
     1  O    8.292273   0.247237   0.247237
     2  H    0.247237   0.380379  -0.020990
     3  H    0.247237  -0.020990   0.380379
 Mulliken charges:
               1
     1  O   -0.786748
     2  H    0.393374
     3  H    0.393374
     4  O    0.000000
     5  H    0.000000
     6  H    0.000000
 Sum of Mulliken charges =   0.00000
 Mulliken charges with hydrogens summed into heavy atoms:
               1
     1  O    0.000000
     4  O    0.000000
 Electronic spatial extent (au):  <R**2>=            186.0432
 Charge=              0.0000 electrons
 Dipole moment (field-independent basis, Debye):
    X=              1.1542    Y=              1.6331    Z=              0.0000  Tot=              1.9998
 Quadrupole moment (field-independent basis, Debye-Ang):
   XX=             -5.4401   YY=            -12.3063   ZZ=             -7.1850
   XY=             -3.9118   XZ=              0.0000   YZ=              0.0000
 Traceless Quadrupole moment (field-independent basis, Debye-Ang):
   XX=              2.8704   YY=             -3.9959   ZZ=              1.1255
   XY=             -3.9118   XZ=              0.0000   YZ=              0.0000
 Octapole moment (field-independent basis, Debye-Ang**2):
  XXX=              6.2728  YYY=             57.5929  ZZZ=              0.0000  XYY=             12.7407
  XXY=             12.5057  XXZ=              0.0000  XZZ=              2.3715  YZZ=             15.3729
  YYZ=              0.0000  XYZ=              0.0000
 Hexadecapole moment (field-independent basis, Debye-Ang**3):
 XXXX=            -10.3289 YYYY=           -224.3669 ZZZZ=             -5.1928 XXXY=            -13.7600
 XXXZ=              0.0000 YYYX=            -39.8991 YYYZ=              0.0000 ZZZX=              0.0000
 ZZZY=              0.0000 XXYY=            -30.9526 XXZZ=             -2.8252 YYZZ=            -34.8673
 XXYZ=              0.0000 YYXZ=              0.0000 ZZXY=             -4.9802
 N-N= 9.157115983089D+00 E-N=-1.989174611189D+02  KE= 7.583703813388D+01
 Orbital energies and kinetic energies (alpha):
                                 1                 2
   1         O               -19.133478         29.030459
   2         O                -0.996513          2.582022
   3         O                -0.530064          1.778945
   4         O                -0.360838          2.231338
   5         O                -0.289783          2.295755
   6         V                 0.065502          1.166373
   7         V                 0.152684          1.230295
   8         V                 0.800477          2.156962
   9         V                 0.848794          2.982599
  10         V                 0.892189          3.556110
  11         V                 0.892403          2.933975
  12         V                 1.073668          3.742470
  13         V                 1.175708          2.409296
  14         V                 1.739981          2.800000
  15         V                 1.745078          2.792966
  16         V                 1.785474          2.797325
  17         V                 2.298935          3.493053
  18         V                 2.593636          3.909305
  19         V                 3.566516          9.875109
 Total kinetic energy from orbitals= 7.583703813388D+01
 No NMR shielding tensors so no spin-rotation constants.
 Leave Link  601 at Sun Mar 22 10:40:46 2015, MaxMem=   134217728 cpu:         0.1
 (Enter /opt/g09_D01_em64t/g09/l701.exe)
 Compute integral first derivatives.
 ... and contract with generalized density number  0.
 Leave Link  701 at Sun Mar 22 10:40:46 2015, MaxMem=   134217728 cpu:         0.1
 (Enter /opt/g09_D01_em64t/g09/l702.exe)
 L702 exits ... SP integral derivatives will be done elsewhere.
 Leave Link  702 at Sun Mar 22 10:40:46 2015, MaxMem=   134217728 cpu:         0.0
 (Enter /opt/g09_D01_em64t/g09/l703.exe)
 Compute integral first derivatives, UseDBF=F ICtDFT=           0.
 Integral derivatives from FoFJK, PRISM(SPDF).
 Calling FoFJK, ICntrl=      2127 FMM=F ISym2X=0 I1Cent= 0 IOpClX= 0 NMat=1 NMatS=1 NMatT=0.
 FoFJK:  IHMeth= 1 ICntrl=    2127 DoSepK=F KAlg= 0 I1Cent=   0 FoldK=F
 IRaf=         0 NMat=   1 IRICut=       1 DoRegI=T DoRafI=F ISym2E= 0.
 FoFCou: FMM=F IPFlag=           0 FMFlag=      100000 FMFlg1=         800
         NFxFlg=           0 DoJE=F BraDBF=F KetDBF=F FulRan=T
         wScrn=  0.000000 ICntrl=    2127 IOpCl=  0 I1Cent=           0 NGrid=           0
         NMat0=    1 NMatS0=      1 NMatT0=    0 NMatD0=    1 NMtDS0=    0 NMtDT0=    0
 Symmetry not used in FoFCou.
 Leave Link  703 at Sun Mar 22 10:40:46 2015, MaxMem=   134217728 cpu:         0.2
 (Enter /opt/g09_D01_em64t/g09/l716.exe)
 Dipole        = 4.54087665D-01 6.42519140D-01-4.23364944D-16
 Cartesian Forces:  Max     0.017172976 RMS     0.006072755
 Leave Link  716 at Sun Mar 22 10:40:47 2015, MaxMem=   134217728 cpu:         0.0
 (Enter /opt/g09_D01_em64t/g09/l120.exe)
 SvSCFP is copying densities from files   528 and   530 to   603.
 ONIOM: saving gridpoint  1
 ONIOM: restoring gridpoint  3
 ONIOM: calculating energy.
 ONIOM: gridpoint  1 method:  low   system:  model energy:   -76.408019626580
 ONIOM: gridpoint  2 method:  high  system:  model energy:   -76.123796243641
 ONIOM: gridpoint  3 method:  low   system:  real  energy:  -152.812128442343
 ONIOM: extrapolated energy =    -152.527905059404
 ONIOM: calculating first derivatives.
 ONIOM: calculating electric field derivatives.
 ONIOM: Integrating ONIOM file  4 number   619
 ONIOM: Dipole        = 2.68484912D-01 5.00749267D-01-1.96357648D-15
 ONIOM: Dipole moment (Debye):
    X=     0.6824    Y=     1.2728    Z=     0.0000  Tot=     1.4442
 ONIOM: Integrating ONIOM file  5 number   695
 Nuclear Quadrupole Tensors: 
                 1             2             3             4             5 
      1   0.600063D+00 -0.388724D+00  0.172954D+00 -0.124164D+01 -0.478366D+00
      2   0.113165D+01 -0.162670D-01  0.180531D+00  0.724821D+00  0.805490D-02
      3   0.136690D+01  0.220242D+00 -0.345465D+00 -0.641981D+00  0.200783D+00
      4   0.000000D+00  0.000000D+00  0.000000D+00  0.000000D+00  0.000000D+00
      5   0.000000D+00  0.000000D+00  0.000000D+00  0.000000D+00  0.000000D+00
      6  -0.196697D+01  0.168482D+00  0.172511D+00  0.188362D+01  0.277584D+00
                 6 
      1   0.133210D+00
      2   0.212720D+00
      3  -0.402115D+00
      4   0.000000D+00
      5   0.000000D+00
      6   0.268905D+00
 Saving ESP charges from gridpoint 3
 Leave Link  120 at Sun Mar 22 10:40:47 2015, MaxMem=   134217728 cpu:         0.0
 (Enter /opt/g09_D01_em64t/g09/l716.exe)
 Dipole        = 2.68484912D-01 5.00749267D-01-1.96357648D-15
 -------------------------------------------------------------------
 Center     Atomic                   Forces (Hartrees/Bohr)
 Number     Number              X              Y              Z
 -------------------------------------------------------------------
      1        8          -0.066610981   -0.096213805    0.000000000
      2        1           0.104746493   -0.000866595    0.000000000
      3        1          -0.038065941    0.091141460    0.000000000
      4        8          -0.010405466   -0.018852786    0.000000000
      5        1           0.004167514    0.016174452    0.000000000
      6        1           0.006168381    0.008617274    0.000000000
 -------------------------------------------------------------------
 Cartesian Forces:  Max     0.104746493 RMS     0.044270299
 Z-matrix is all fixed cartesians, so copy forces.
 Force constants in Cartesian coordinates: 
                1             2             3             4             5 
      1  0.659745D+00
      2 -0.113428D+00  0.579412D+00
      3  0.000000D+00  0.000000D+00  0.100000D+01
      4 -0.554734D+00  0.000000D+00  0.000000D+00  0.554734D+00
      5 -0.458275D-01 -0.648444D-01  0.000000D+00  0.000000D+00  0.486161D-01
      6  0.000000D+00  0.000000D+00  0.000000D+00  0.000000D+00  0.000000D+00
      7 -0.105011D+00  0.113428D+00  0.000000D+00  0.000000D+00  0.458275D-01
      8  0.159255D+00 -0.514567D+00  0.000000D+00  0.000000D+00  0.162284D-01
      9  0.000000D+00  0.000000D+00  0.000000D+00  0.000000D+00  0.000000D+00
     10  0.000000D+00  0.000000D+00  0.000000D+00  0.000000D+00  0.000000D+00
     11  0.000000D+00  0.000000D+00  0.000000D+00  0.000000D+00  0.000000D+00
     12  0.000000D+00  0.000000D+00  0.000000D+00  0.000000D+00  0.000000D+00
     13  0.000000D+00  0.000000D+00  0.000000D+00  0.000000D+00  0.000000D+00
     14  0.000000D+00  0.000000D+00  0.000000D+00  0.000000D+00  0.000000D+00
     15  0.000000D+00  0.000000D+00  0.000000D+00  0.000000D+00  0.000000D+00
     16  0.000000D+00  0.000000D+00  0.000000D+00  0.000000D+00  0.000000D+00
     17  0.000000D+00  0.000000D+00  0.000000D+00  0.000000D+00  0.000000D+00
     18  0.000000D+00  0.000000D+00  0.000000D+00  0.000000D+00  0.000000D+00
                6             7             8             9            10 
      6  0.100000D+01
      7  0.000000D+00  0.105011D+00
      8  0.000000D+00 -0.159255D+00  0.498339D+00
      9  0.000000D+00  0.000000D+00  0.000000D+00  0.100000D+01
     10  0.000000D+00  0.000000D+00  0.000000D+00  0.000000D+00  0.659745D+00
     11  0.000000D+00  0.000000D+00  0.000000D+00  0.000000D+00 -0.113428D+00
     12  0.000000D+00  0.000000D+00  0.000000D+00  0.000000D+00  0.000000D+00
     13  0.000000D+00  0.000000D+00  0.000000D+00  0.000000D+00 -0.554734D+00
     14  0.000000D+00  0.000000D+00  0.000000D+00  0.000000D+00 -0.458275D-01
     15  0.000000D+00  0.000000D+00  0.000000D+00  0.000000D+00  0.000000D+00
     16  0.000000D+00  0.000000D+00  0.000000D+00  0.000000D+00 -0.105011D+00
     17  0.000000D+00  0.000000D+00  0.000000D+00  0.000000D+00  0.159255D+00
     18  0.000000D+00  0.000000D+00  0.000000D+00  0.000000D+00  0.000000D+00
               11            12            13            14            15 
     11  0.579412D+00
     12  0.000000D+00  0.100000D+01
     13  0.000000D+00  0.000000D+00  0.554734D+00
     14 -0.648444D-01  0.000000D+00  0.000000D+00  0.486161D-01
     15  0.000000D+00  0.000000D+00  0.000000D+00  0.000000D+00  0.100000D+01
     16  0.113428D+00  0.000000D+00  0.000000D+00  0.458275D-01  0.000000D+00
     17 -0.514567D+00  0.000000D+00  0.000000D+00  0.162284D-01  0.000000D+00
     18  0.000000D+00  0.000000D+00  0.000000D+00  0.000000D+00  0.000000D+00
               16            17            18 
     16  0.105011D+00
     17 -0.159255D+00  0.498339D+00
     18  0.000000D+00  0.000000D+00  0.100000D+01
 Leave Link  716 at Sun Mar 22 10:40:47 2015, MaxMem=   134217728 cpu:         0.0
 (Enter /opt/g09_D01_em64t/g09/l103.exe)

 GradGradGradGradGradGradGradGradGradGradGradGradGradGradGradGradGradGrad
 Berny optimization.
 Search for a local minimum.
 Step number   1 out of a maximum of    2
 All quantities printed in internal units (Hartrees-Bohrs-Radians)
 Second derivative matrix not updated -- first step.
 The second derivative matrix:
                          X1        Y1        Z1        X2        Y2
           X1           0.65975
           Y1          -0.11343   0.57941
           Z1           0.00000   0.00000   1.00000
           X2          -0.55473   0.00000   0.00000   0.55473
           Y2          -0.04583  -0.06484   0.00000   0.00000   0.04862
           Z2           0.00000   0.00000   0.00000   0.00000   0.00000
           X3          -0.10501   0.11343   0.00000   0.00000   0.04583
           Y3           0.15926  -0.51457   0.00000   0.00000   0.01623
           Z3           0.00000   0.00000   0.00000   0.00000   0.00000
           X4           0.00000   0.00000   0.00000   0.00000   0.00000
           Y4           0.00000   0.00000   0.00000   0.00000   0.00000
           Z4           0.00000   0.00000   0.00000   0.00000   0.00000
           X5           0.00000   0.00000   0.00000   0.00000   0.00000
           Y5           0.00000   0.00000   0.00000   0.00000   0.00000
           Z5           0.00000   0.00000   0.00000   0.00000   0.00000
           X6           0.00000   0.00000   0.00000   0.00000   0.00000
           Y6           0.00000   0.00000   0.00000   0.00000   0.00000
           Z6           0.00000   0.00000   0.00000   0.00000   0.00000
                          Z2        X3        Y3        Z3        X4
           Z2           1.00000
           X3           0.00000   0.10501
           Y3           0.00000  -0.15926   0.49834
           Z3           0.00000   0.00000   0.00000   1.00000
           X4           0.00000   0.00000   0.00000   0.00000   0.65975
           Y4           0.00000   0.00000   0.00000   0.00000  -0.11343
           Z4           0.00000   0.00000   0.00000   0.00000   0.00000
           X5           0.00000   0.00000   0.00000   0.00000  -0.55473
           Y5           0.00000   0.00000   0.00000   0.00000  -0.04583
           Z5           0.00000   0.00000   0.00000   0.00000   0.00000
           X6           0.00000   0.00000   0.00000   0.00000  -0.10501
           Y6           0.00000   0.00000   0.00000   0.00000   0.15926
           Z6           0.00000   0.00000   0.00000   0.00000   0.00000
                          Y4        Z4        X5        Y5        Z5
           Y4           0.57941
           Z4           0.00000   1.00000
           X5           0.00000   0.00000   0.55473
           Y5          -0.06484   0.00000   0.00000   0.04862
           Z5           0.00000   0.00000   0.00000   0.00000   1.00000
           X6           0.11343   0.00000   0.00000   0.04583   0.00000
           Y6          -0.51457   0.00000   0.00000   0.01623   0.00000
           Z6           0.00000   0.00000   0.00000   0.00000   0.00000
                          X6        Y6        Z6
           X6           0.10501
           Y6          -0.15926   0.49834
           Z6           0.00000   0.00000   1.00000
 ITU=  0
     Eigenvalues ---    0.00000   0.00000   0.00000   0.15088   0.15282
     Eigenvalues ---    0.83343   0.84802   1.00000   1.00000   1.00000
     Eigenvalues ---    1.04693   1.28147
 Eigenvalue     1 is  -2.22D-16 should be greater than     0.000000 Eigenvector:
                          Y5        X6        Y2        X3        Y6
   1                    0.65290  -0.51625  -0.41778   0.31239  -0.12633
                          Y1        Y4        X5        X4        X1
   1                   -0.10632   0.06869   0.03445   0.03445   0.01880
 Eigenvalue     2 is   0.00D+00 Eigenvector:
                          X3        Y2        Y3        Y5        Y1
   1                    0.54765  -0.46774   0.46735  -0.36278   0.23333
                          X6        X1        X2        Y4        X4
   1                    0.17245  -0.11321  -0.11321  -0.10040  -0.07488
 Eigenvalue     3 is   8.88D-16 Eigenvector:
                          Y6        X5        X4        Y4        Y3
   1                    0.48053  -0.34664  -0.34664   0.32945  -0.30610
                          Y1        X2        X1        X3        Y2
   1                   -0.27843   0.27445   0.27445   0.19634  -0.19557
 Quadratic step=8.224D+01 exceeds max=3.000D-01 adjusted using Lamda=-4.547D-02.
 Angle between NR and scaled steps=  52.92 degrees.
 Angle between quadratic step and forces=  46.11 degrees.
 Linear search not attempted -- first point.
 TrRot=  0.000600 -0.032380  0.000000 -0.001521  0.000000 -0.001521
 Variable       Old X    -DE/DX   Delta X   Delta X   Delta X     New X
                                 (Linear)    (Quad)   (Total)
    X1       -0.69675  -0.06661   0.00000  -0.00118  -0.01344  -0.71019
    Y1       -4.14652  -0.09621   0.00000  -0.08427  -0.11451  -4.26103
    Z1        0.00000   0.00000   0.00000   0.00000   0.00000   0.00000
    X2        1.11739   0.10475   0.00000   0.17402   0.16201   1.27940
    Y2       -4.14652  -0.00087   0.00000   0.00174  -0.03455  -4.18107
    Z2        0.00000   0.00000   0.00000   0.00000   0.00000   0.00000
    X3       -1.30232  -0.03807   0.00000  -0.13708  -0.14373  -1.44605
    Y3       -2.43644   0.09114   0.00000   0.04955   0.02156  -2.41488
    Z3        0.00000   0.00000   0.00000   0.00000   0.00000   0.00000
    X4       -4.43542  -0.01041   0.00000  -0.00834  -0.00576  -4.44118
    Y4        0.64577  -0.01885   0.00000  -0.00040  -0.01927   0.62650
    Z4        0.00000   0.00000   0.00000   0.00000   0.00000   0.00000
    X5       -2.62128   0.00417   0.00000  -0.00097   0.00214  -2.61914
    Y5        0.64577   0.01617   0.00000   0.17741   0.15301   0.79878
    Z5        0.00000   0.00000   0.00000   0.00000   0.00000   0.00000
    X6       -5.04099   0.00617   0.00000  -0.00904  -0.00122  -5.04221
    Y6        2.35585   0.00862   0.00000   0.01080  -0.00623   2.34962
    Z6        0.00000   0.00000   0.00000   0.00000   0.00000   0.00000
         Item               Value     Threshold  Converged?
 Maximum Force            0.104746     0.000450     NO 
 RMS     Force            0.044270     0.000300     NO 
 Maximum Displacement     0.162011     0.001800     NO 
 RMS     Displacement     0.069008     0.001200     NO 
 Predicted change in Energy=-2.162880D-02
 GradGradGradGradGradGradGradGradGradGradGradGradGradGradGradGradGradGrad

 Leave Link  103 at Sun Mar 22 10:40:47 2015, MaxMem=   134217728 cpu:         0.0
 (Enter /opt/g09_D01_em64t/g09/l9999.exe)
 1\1\GINC-EAM\Force\ONIOM(B3LYP TD-FC/6-31G(d,p):B3LYP/6-31G(d))\Mixed\
 H4O2\DULIKAI\22-Mar-2015\0\\#p force ONIOM(b3lyp/6-31g(d,p) td(singlet
 ,nstates=3,root=1):b3lyp/6-31G*)=(EmbedCharge,inputfiles) nosymm geom=
 connectivity pop=full\\ch2nh2 iop(9/40=20)\\0,1\O,-0.36870503,-2.19424
 457,0.\H,0.59129497,-2.19424457,0.\H,-0.68915962,-1.28930874,0.\O,-2.3
 4712227,0.34172661,0.\H,-1.38712227,0.34172661,0.\H,-2.66757686,1.2466
 6244,0.\\Version=EM64L-G09RevD.01\HF=-76.4080196\RMSD=7.904e-09\RMSF=4
 .427e-02\Dipole=0.2684849,0.5007493,0.\PG=CS [SG(H4O2)]\\@


      SCIENCE SANS CONSCIENCE N'EST QUE RUINE DE L'AME.

                                                  -- RABELAIS
 Job cpu time:       0 days  0 hours  0 minutes  8.5 seconds.
 File lengths (MBytes):  RWF=      5 Int=      0 D2E=      0 Chk=      3 Scr=      1
 Normal termination of Gaussian 09 at Sun Mar 22 10:40:47 2015.
