 Entering Gaussian System, Link 0=g09
 Input=t.gjf
 Output=t.log
 Initial command:
 /opt/g09_D01_em64t/g09/l1.exe "/tmp/Gau-6073.inp" -scrdir="/tmp/"
 Entering Link 1 = /opt/g09_D01_em64t/g09/l1.exe PID=      6074.
  
 Copyright (c) 1988,1990,1992,1993,1995,1998,2003,2009,2013,
            Gaussian, Inc.  All Rights Reserved.
  
 This is part of the Gaussian(R) 09 program.  It is based on
 the Gaussian(R) 03 system (copyright 2003, Gaussian, Inc.),
 the Gaussian(R) 98 system (copyright 1998, Gaussian, Inc.),
 the Gaussian(R) 94 system (copyright 1995, Gaussian, Inc.),
 the Gaussian 92(TM) system (copyright 1992, Gaussian, Inc.),
 the Gaussian 90(TM) system (copyright 1990, Gaussian, Inc.),
 the Gaussian 88(TM) system (copyright 1988, Gaussian, Inc.),
 the Gaussian 86(TM) system (copyright 1986, Carnegie Mellon
 University), and the Gaussian 82(TM) system (copyright 1983,
 Carnegie Mellon University). Gaussian is a federally registered
 trademark of Gaussian, Inc.
  
 This software contains proprietary and confidential information,
 including trade secrets, belonging to Gaussian, Inc.
  
 This software is provided under written license and may be
 used, copied, transmitted, or stored only in accord with that
 written license.
  
 The following legend is applicable only to US Government
 contracts under FAR:
  
                    RESTRICTED RIGHTS LEGEND
  
 Use, reproduction and disclosure by the US Government is
 subject to restrictions as set forth in subparagraphs (a)
 and (c) of the Commercial Computer Software - Restricted
 Rights clause in FAR 52.227-19.
  
 Gaussian, Inc.
 340 Quinnipiac St., Bldg. 40, Wallingford CT 06492
  
  
 ---------------------------------------------------------------
 Warning -- This program may not be used in any manner that
 competes with the business of Gaussian, Inc. or will provide
 assistance to any competitor of Gaussian, Inc.  The licensee
 of this program is prohibited from giving any competitor of
 Gaussian, Inc. access to this program.  By using this program,
 the user acknowledges that Gaussian, Inc. is engaged in the
 business of creating and licensing software in the field of
 computational chemistry and represents and warrants to the
 licensee that it is not a competitor of Gaussian, Inc. and that
 it will not use this program in any manner prohibited above.
 ---------------------------------------------------------------
  

 Cite this work as:
 Gaussian 09, Revision D.01,
 M. J. Frisch, G. W. Trucks, H. B. Schlegel, G. E. Scuseria, 
 M. A. Robb, J. R. Cheeseman, G. Scalmani, V. Barone, B. Mennucci, 
 G. A. Petersson, H. Nakatsuji, M. Caricato, X. Li, H. P. Hratchian, 
 A. F. Izmaylov, J. Bloino, G. Zheng, J. L. Sonnenberg, M. Hada, 
 M. Ehara, K. Toyota, R. Fukuda, J. Hasegawa, M. Ishida, T. Nakajima, 
 Y. Honda, O. Kitao, H. Nakai, T. Vreven, J. A. Montgomery, Jr., 
 J. E. Peralta, F. Ogliaro, M. Bearpark, J. J. Heyd, E. Brothers, 
 K. N. Kudin, V. N. Staroverov, T. Keith, R. Kobayashi, J. Normand, 
 K. Raghavachari, A. Rendell, J. C. Burant, S. S. Iyengar, J. Tomasi, 
 M. Cossi, N. Rega, J. M. Millam, M. Klene, J. E. Knox, J. B. Cross, 
 V. Bakken, C. Adamo, J. Jaramillo, R. Gomperts, R. E. Stratmann, 
 O. Yazyev, A. J. Austin, R. Cammi, C. Pomelli, J. W. Ochterski, 
 R. L. Martin, K. Morokuma, V. G. Zakrzewski, G. A. Voth, 
 P. Salvador, J. J. Dannenberg, S. Dapprich, A. D. Daniels, 
 O. Farkas, J. B. Foresman, J. V. Ortiz, J. Cioslowski, 
 and D. J. Fox, Gaussian, Inc., Wallingford CT, 2013.
 
 ******************************************
 Gaussian 09:  EM64L-G09RevD.01 24-Apr-2013
                 6-Mar-2015 
 ******************************************
 %chk=t.chk
 %mem=1GB
 %nproc=2
 Will use up to    2 processors via shared memory.
 %nproclinda=1
 Will use up to    1 processors via Linda.
 ----------------------------------------------------
 #p hf/6-31G** iop(2/12=3,3/33=1) guess=only pop=full
 ----------------------------------------------------
 1/38=1/1;
 2/12=3,17=6,18=5,40=1/2;
 3/5=1,6=6,7=101,11=9,16=1,25=1,30=1,33=1,89=1/1,2;
 4//1;
 6/7=3,28=1/1;
 99/5=2/99;
 Leave Link    1 at Fri Mar  6 20:17:51 2015, MaxMem=   134217728 cpu:         0.0
 (Enter /opt/g09_D01_em64t/g09/l101.exe)
 ------
 ch2nh2
 ------
 Symbolic Z-matrix:
 Charge =  0 Multiplicity = 1
 O                    -0.36871  -2.19424   0. 
 H                     0.59129  -2.19424   0. 
 H                    -0.68916  -1.28931   0. 
 
 NAtoms=      3 NQM=        3 NQMF=       0 NMMI=      0 NMMIF=      0
                NMic=       0 NMicF=      0.
                    Isotopes and Nuclear Properties:
 (Nuclear quadrupole moments (NQMom) in fm**2, nuclear magnetic moments (NMagM)
  in nuclear magnetons)

  Atom         1           2           3
 IAtWgt=          16           1           1
 AtmWgt=  15.9949146   1.0078250   1.0078250
 NucSpn=           0           1           1
 AtZEff=   0.0000000   0.0000000   0.0000000
 NQMom=    0.0000000   0.0000000   0.0000000
 NMagM=    0.0000000   2.7928460   2.7928460
 AtZNuc=   8.0000000   1.0000000   1.0000000
 Leave Link  101 at Fri Mar  6 20:17:51 2015, MaxMem=   134217728 cpu:         0.1
 (Enter /opt/g09_D01_em64t/g09/l202.exe)
                          Input orientation:                          
 ---------------------------------------------------------------------
 Center     Atomic      Atomic             Coordinates (Angstroms)
 Number     Number       Type             X           Y           Z
 ---------------------------------------------------------------------
      1          8           0       -0.368705   -2.194245    0.000000
      2          1           0        0.591295   -2.194245    0.000000
      3          1           0       -0.689160   -1.289309    0.000000
 ---------------------------------------------------------------------
                    Distance matrix (angstroms):
                    1          2          3
     1  O    0.000000
     2  H    0.960000   0.000000
     3  H    0.960000   1.567952   0.000000
 Stoichiometry    H2O
 Framework group  C2V[C2(O),SGV(H2)]
 Deg. of freedom     2
 Full point group                 C2V     NOp   4
 Largest Abelian subgroup         C2V     NOp   4
 Largest concise Abelian subgroup C2      NOp   2
                         Standard orientation:                         
 ---------------------------------------------------------------------
 Center     Atomic      Atomic             Coordinates (Angstroms)
 Number     Number       Type             X           Y           Z
 ---------------------------------------------------------------------
      1          8           0        0.000000    0.000000    0.110812
      2          1           0        0.000000    0.783976   -0.443248
      3          1           0        0.000000   -0.783976   -0.443248
 ---------------------------------------------------------------------
 Rotational constants (GHZ):    919.6759643    407.9403261    282.5913749
 Leave Link  202 at Fri Mar  6 20:17:51 2015, MaxMem=   134217728 cpu:         0.0
 (Enter /opt/g09_D01_em64t/g09/l301.exe)
 Standard basis: 6-31G(d,p) (6D, 7F)
                         Coordinates in L301:                         
 ---------------------------------------------------------------------
 Center     Atomic      Atomic             Coordinates (Angstroms)
 Number     Number       Type             X           Y           Z
 ---------------------------------------------------------------------
      1          8           0        0.000000    0.000000    0.110812
      2          1           0        0.000000    0.783976   -0.443248
      3          1           0        0.000000   -0.783976   -0.443248
 ---------------------------------------------------------------------
 FixB: optimizing general contractions.
 Ernie: Thresh=  0.10000D-02 Tol=  0.10000D-05 Strict=F.
 IA=     1 ShT= 0 ShC= 0 NL=   1 NS=   0.
 IA=     1 L=0 SC=0 ISt=    0 NBk=    0 NP=    0 IndPr=    0.
 IA=     1 ShT= 1 ShC= 0 NL=   2 NS=   1.
 IA=     1 L=1 SC=0 ISt=    0 NBk=    0 NP=    0 IndPr=    0.
 IA=     1 ShT= 2 ShC= 2 NL=   1 NS=   1.
 IA=     1 L=2 SC=2 ISt=    0 NBk=    0 NP=    0 IndPr=    0.
 IA=     2 ShT= 0 ShC= 0 NL=   2 NS=   1.
 IA=     2 L=0 SC=0 ISt=    0 NBk=    0 NP=    0 IndPr=    0.
 IA=     2 ShT= 1 ShC= 1 NL=   1 NS=   1.
 IA=     2 L=1 SC=1 ISt=    0 NBk=    0 NP=    0 IndPr=    0.
 IA=     3 ShT= 0 ShC= 0 NL=   2 NS=   1.
 IA=     3 L=0 SC=0 ISt=    0 NBk=    0 NP=    0 IndPr=    0.
 IA=     3 ShT= 1 ShC= 1 NL=   1 NS=   1.
 IA=     3 L=1 SC=1 ISt=    0 NBk=    0 NP=    0 IndPr=    0.
 LdAtmC:  AtmChg=     8.000000     1.000000     1.000000
 AtZEff=     -5.6000000     -1.0000000     -1.0000000
 NEqShl: 
              1            2            3            4
     1            1            1            1            1
     2            2            2            2            2
     3            3            3            3            3
     4            4            4            4            4
     5            5            8            5            8
     6            6            9            6            9
     7            7           10            7           10
     8            8            5            8            5
     9            9            6            9            6
    10           10            7           10            7
 NEqBas: 
              1            2            3            4
     1            1            1            1            1
     2            2            2            2            2
     3            3           -3           -3            3
     4            4           -4            4           -4
     5            5            5            5            5
     6            6            6            6            6
     7            7           -7           -7            7
     8            8           -8            8           -8
     9            9            9            9            9
    10           10           10           10           10
    11           11           11           11           11
    12           12           12           12           12
    13           13           13          -13          -13
    14           14          -14          -14           14
    15           15          -15           15          -15
    16           16           21           16           21
    17           17           22           17           22
    18           18          -23          -18           23
    19           19          -24           19          -24
    20           20           25           20           25
    21           21           16           21           16
    22           22           17           22           17
    23           23          -18          -23           18
    24           24          -19           24          -19
    25           25           20           25           20
 There are    12 symmetry adapted cartesian basis functions of A1  symmetry.
   1         1   1   1   1
   2         2   2   2   2
   3         5   5   5   5
   4         6   6   6   6
   5         9   9   9   9
   6        10  10  10  10
   7        11  11  11  11
   8        12  12  12  12
   9        16  21  21  16
  10        17  22  22  17
  11        19 -24 -24  19
  12        20  25  25  20
 There are     2 symmetry adapted cartesian basis functions of A2  symmetry.
  13        13  13  13  13
  14        18 -23 -23  18
 There are     4 symmetry adapted cartesian basis functions of B1  symmetry.
  15         3   3   3   3
  16         7   7   7   7
  17        14  14  14  14
  18        18  23  23  18
 There are     7 symmetry adapted cartesian basis functions of B2  symmetry.
  19         4   4   4   4
  20         8   8   8   8
  21        15  15  15  15
  22        16 -21 -21  16
  23        17 -22 -22  17
  24        19  24  24  19
  25        20 -25 -25  20
 Order= 1 2 4 3
 Reordered character table:
              1            2            3            4            5
     1            1            1            1            1            1
     2            2            1            1           -1           -1
     3            4            1           -1           -1            1
     4            3            1           -1            1           -1
 NEqShl: 
              1            2            3            4
     1            1            1            1            1
     2            2            2            2            2
     3            3            3            3            3
     4            4            4            4            4
     5            5            8            5            8
     6            6            9            6            9
     7            7           10            7           10
     8            8            5            8            5
     9            9            6            9            6
    10           10            7           10            7
 NEqBas: 
              1            2            3            4
     1            1            1            1            1
     2            2            2            2            2
     3            3           -3           -3            3
     4            4           -4            4           -4
     5            5            5            5            5
     6            6            6            6            6
     7            7           -7           -7            7
     8            8           -8            8           -8
     9            9            9            9            9
    10           10           10           10           10
    11           11           11           11           11
    12           12           12           12           12
    13           13           13          -13          -13
    14           14          -14          -14           14
    15           15          -15           15          -15
    16           16           21           16           21
    17           17           22           17           22
    18           18          -23          -18           23
    19           19          -24           19          -24
    20           20           25           20           25
    21           21           16           21           16
    22           22           17           22           17
    23           23          -18          -23           18
    24           24          -19           24          -19
    25           25           20           25           20
 There are    12 symmetry adapted basis functions of A1  symmetry.
   1         1   1   1   1
   2         2   2   2   2
   3         5   5   5   5
   4         6   6   6   6
   5         9   9   9   9
   6        10  10  10  10
   7        11  11  11  11
   8        12  12  12  12
   9        16  21  21  16
  10        17  22  22  17
  11        19 -24 -24  19
  12        20  25  25  20
 There are     2 symmetry adapted basis functions of A2  symmetry.
  13        13  13  13  13
  14        18 -23 -23  18
 There are     4 symmetry adapted basis functions of B1  symmetry.
  15         3   3   3   3
  16         7   7   7   7
  17        14  14  14  14
  18        18  23  23  18
 There are     7 symmetry adapted basis functions of B2  symmetry.
  19         4   4   4   4
  20         8   8   8   8
  21        15  15  15  15
  22        16 -21 -21  16
  23        17 -22 -22  17
  24        19  24  24  19
  25        20 -25 -25  20
 Order= 1 2 4 3
 Reordered character table:
              1            2            3            4            5
     1            1            1            1            1            1
     2            2            1            1           -1           -1
     3            4            1           -1           -1            1
     4            3            1           -1            1           -1
    25 basis functions,    42 primitive gaussians,    25 cartesian basis functions
     5 alpha electrons        5 beta electrons
       nuclear repulsion energy         9.1571159843 Hartrees.
 IS=     1 IAt=     1 ISR=     1 T=0 IP=      1 IndIP=      1 IndIPD=      0 C=  8.317237D-01  0.000000D+00                             NZ=T
 IS=     1 IAt=     1 ISR=     1 T=0 IP=      2 IndIP=      2 IndIPD=      1 C=  1.530816D+00  0.000000D+00                             NZ=T
 IS=     1 IAt=     1 ISR=     1 T=0 IP=      3 IndIP=      3 IndIPD=      2 C=  2.477149D+00  0.000000D+00                             NZ=T
 IS=     1 IAt=     1 ISR=     1 T=0 IP=      4 IndIP=      4 IndIPD=      3 C=  3.256281D+00  0.000000D+00                             NZ=T
 IS=     1 IAt=     1 ISR=     1 T=0 IP=      5 IndIP=      5 IndIPD=      4 C=  2.792893D+00  0.000000D+00                             NZ=T
 IS=     1 IAt=     1 ISR=     1 T=0 IP=      6 IndIP=      6 IndIPD=      5 C=  9.549377D-01  0.000000D+00                             NZ=T
 IS=     2 IAt=     1 ISR=     2 T=1 IP=      1 IndIP=      7 IndIPD=      0 C= -6.179340D-01  3.116944D+00                             NZ=T
 IS=     2 IAt=     1 ISR=     2 T=1 IP=      2 IndIP=      8 IndIPD=      1 C= -2.757209D-01  2.401438D+00                             NZ=T
 IS=     2 IAt=     1 ISR=     2 T=1 IP=      3 IndIP=      9 IndIPD=      2 C=  8.142076D-01  1.054360D+00                             NZ=T
 IS=     3 IAt=     1 ISR=     3 T=1 IP=      1 IndIP=     10 IndIPD=      0 C=  2.669562D-01  2.774320D-01                             NZ=T
 IS=     4 IAt=     1 ISR=     4 T=2 IP=      1 IndIP=     11 IndIPD=      1 C=  0.000000D+00  0.000000D+00  1.113825D+00  0.000000D+00 NZ=T
 IS=     5 IAt=     2 ISR=     1 T=0 IP=      1 IndIP=     12 IndIPD=      0 C=  2.149354D-01  0.000000D+00                             NZ=T
 IS=     5 IAt=     2 ISR=     1 T=0 IP=      2 IndIP=     13 IndIPD=      1 C=  3.645712D-01  0.000000D+00                             NZ=T
 IS=     5 IAt=     2 ISR=     1 T=0 IP=      3 IndIP=     14 IndIPD=      2 C=  4.150514D-01  0.000000D+00                             NZ=T
 IS=     6 IAt=     2 ISR=     2 T=0 IP=      1 IndIP=     15 IndIPD=      0 C=  1.813806D-01  0.000000D+00                             NZ=T
 IS=     7 IAt=     2 ISR=     3 T=1 IP=      1 IndIP=     16 IndIPD=      0 C=  0.000000D+00  1.605761D+00                             NZ=T
 IS=     8 IAt=     3 ISR=     1 T=0 IP=      1 IndIP=     17 IndIPD=      0 C=  2.149354D-01  0.000000D+00                             NZ=T
 IS=     8 IAt=     3 ISR=     1 T=0 IP=      2 IndIP=     18 IndIPD=      1 C=  3.645712D-01  0.000000D+00                             NZ=T
 IS=     8 IAt=     3 ISR=     1 T=0 IP=      3 IndIP=     19 IndIPD=      2 C=  4.150514D-01  0.000000D+00                             NZ=T
 IS=     9 IAt=     3 ISR=     2 T=0 IP=      1 IndIP=     20 IndIPD=      0 C=  1.813806D-01  0.000000D+00                             NZ=T
 IS=    10 IAt=     3 ISR=     3 T=1 IP=      1 IndIP=     21 IndIPD=      0 C=  0.000000D+00  1.605761D+00                             NZ=T
 IExCor=    0 DFT=F Ex=HF Corr=None ExCW=0 ScaHFX=  1.000000
 ScaDFX=  1.000000  1.000000  1.000000  1.000000 ScalE2=  1.000000  1.000000
 IRadAn=      0 IRanWt=     -1 IRanGd=            0 ICorTp=0 IEmpDi=  4
 NAtoms=    3 NActive=    3 NUniq=    2 SFac= 2.25D+00 NAtFMM=   60 NAOKFM=F Big=F
 Integral buffers will be    131072 words long.
 Raffenetti 1 integral format.
 Two-electron integral symmetry is turned on.
 Leave Link  301 at Fri Mar  6 20:17:51 2015, MaxMem=   134217728 cpu:         0.1
 (Enter /opt/g09_D01_em64t/g09/l302.exe)
 NPDir=0 NMtPBC=     1 NCelOv=     1 NCel=       1 NClECP=     1 NCelD=      1
         NCelK=      1 NCelE2=     1 NClLst=     1 CellRange=     0.0.
 One-electron integrals computed using PRISM.
 One-electron integral symmetry used in STVInt
 Entering OneElI...
 Calculate overlap and kinetic energy integrals
    NBasis =  25  MinDer = 0  MaxDer = 0
 Requested accuracy = 0.1000D-12
 Symmetry will be used
 PrsmSu:  NPrtUS=   2 ThrOK=T IAlg=1 NPAlg=2 LenDen=           0.
 Prism:   IPart=     0 DynPar=F LinDyn=F Incr=           1.
 PRISM was handed    67101941 working-precision words and    55 shell-pairs
 PRISM was handed    67101941 working-precision words and    55 shell-pairs
 IPart=  1 NShTot=           6 NBatch=           6 AvBLen=         1.0
 IPart=  0 NShTot=          28 NBatch=          28 AvBLen=         1.0
 PrSmSu:  NxtVal=              3.
 *** Overlap *** 
                1             2             3             4             5 
      1  0.100000D+01
      2  0.233690D+00  0.100000D+01
      3  0.000000D+00  0.000000D+00  0.100000D+01
      4  0.000000D+00  0.000000D+00  0.000000D+00  0.100000D+01
      5  0.000000D+00  0.000000D+00  0.000000D+00  0.000000D+00  0.100000D+01
      6  0.167280D+00  0.763641D+00  0.000000D+00  0.000000D+00  0.000000D+00
      7  0.000000D+00  0.000000D+00  0.501521D+00  0.000000D+00  0.000000D+00
      8  0.000000D+00  0.000000D+00  0.000000D+00  0.501521D+00  0.000000D+00
      9  0.000000D+00  0.000000D+00  0.000000D+00  0.000000D+00  0.501521D+00
     10  0.335315D-01  0.547066D+00  0.000000D+00  0.000000D+00  0.000000D+00
     11  0.335315D-01  0.547066D+00  0.000000D+00  0.000000D+00  0.000000D+00
     12  0.335315D-01  0.547066D+00  0.000000D+00  0.000000D+00  0.000000D+00
     13  0.000000D+00  0.000000D+00  0.000000D+00  0.000000D+00  0.000000D+00
     14  0.000000D+00  0.000000D+00  0.000000D+00  0.000000D+00  0.000000D+00
     15  0.000000D+00  0.000000D+00  0.000000D+00  0.000000D+00  0.000000D+00
     16  0.346526D-01  0.247247D+00  0.000000D+00  0.233777D+00 -0.165217D+00
     17  0.688189D-01  0.379507D+00  0.000000D+00  0.120705D+00 -0.853061D-01
     18  0.000000D+00  0.000000D+00  0.142271D+00  0.000000D+00  0.000000D+00
     19 -0.466092D-01 -0.275561D+00  0.000000D+00 -0.207493D+00  0.247189D+00
     20  0.329401D-01  0.194747D+00  0.000000D+00  0.247189D+00 -0.324245D-01
     21  0.346526D-01  0.247247D+00  0.000000D+00 -0.233777D+00 -0.165217D+00
     22  0.688189D-01  0.379507D+00  0.000000D+00 -0.120705D+00 -0.853061D-01
     23  0.000000D+00  0.000000D+00  0.142271D+00  0.000000D+00  0.000000D+00
     24  0.466092D-01  0.275561D+00  0.000000D+00 -0.207493D+00 -0.247189D+00
     25  0.329401D-01  0.194747D+00  0.000000D+00 -0.247189D+00 -0.324245D-01
                6             7             8             9            10 
      6  0.100000D+01
      7  0.000000D+00  0.100000D+01
      8  0.000000D+00  0.000000D+00  0.100000D+01
      9  0.000000D+00  0.000000D+00  0.000000D+00  0.100000D+01
     10  0.699015D+00  0.000000D+00  0.000000D+00  0.000000D+00  0.100000D+01
     11  0.699015D+00  0.000000D+00  0.000000D+00  0.000000D+00  0.333333D+00
     12  0.699015D+00  0.000000D+00  0.000000D+00  0.000000D+00  0.333333D+00
     13  0.000000D+00  0.000000D+00  0.000000D+00  0.000000D+00  0.000000D+00
     14  0.000000D+00  0.000000D+00  0.000000D+00  0.000000D+00  0.000000D+00
     15  0.000000D+00  0.000000D+00  0.000000D+00  0.000000D+00  0.000000D+00
     16  0.426176D+00  0.000000D+00  0.476453D+00 -0.336724D+00  0.166296D+00
     17  0.682806D+00  0.000000D+00  0.393121D+00 -0.277831D+00  0.399154D+00
     18  0.000000D+00  0.276608D+00  0.000000D+00  0.000000D+00  0.000000D+00
     19 -0.212938D+00  0.000000D+00  0.133744D-01  0.186035D+00 -0.135942D+00
     20  0.150490D+00  0.000000D+00  0.186035D+00  0.145131D+00  0.960742D-01
     21  0.426176D+00  0.000000D+00 -0.476453D+00 -0.336724D+00  0.166296D+00
     22  0.682806D+00  0.000000D+00 -0.393121D+00 -0.277831D+00  0.399154D+00
     23  0.000000D+00  0.276608D+00  0.000000D+00  0.000000D+00  0.000000D+00
     24  0.212938D+00  0.000000D+00  0.133744D-01 -0.186035D+00  0.135942D+00
     25  0.150490D+00  0.000000D+00 -0.186035D+00  0.145131D+00  0.960742D-01
               11            12            13            14            15 
     11  0.100000D+01
     12  0.333333D+00  0.100000D+01
     13  0.000000D+00  0.000000D+00  0.100000D+01
     14  0.000000D+00  0.000000D+00  0.000000D+00  0.100000D+01
     15  0.000000D+00  0.000000D+00  0.000000D+00  0.000000D+00  0.100000D+01
     16  0.425311D+00  0.295665D+00  0.000000D+00  0.000000D+00 -0.317059D+00
     17  0.446564D+00  0.422834D+00  0.000000D+00  0.000000D+00 -0.580347D-01
     18  0.000000D+00  0.000000D+00  0.323755D+00 -0.228808D+00  0.000000D+00
     19 -0.142132D+00 -0.325755D+00  0.000000D+00  0.000000D+00  0.236385D+00
     20  0.364653D+00 -0.339835D-01  0.000000D+00  0.000000D+00 -0.501026D-02
     21  0.425311D+00  0.295665D+00  0.000000D+00  0.000000D+00  0.317059D+00
     22  0.446564D+00  0.422834D+00  0.000000D+00  0.000000D+00  0.580347D-01
     23  0.000000D+00  0.000000D+00 -0.323755D+00 -0.228808D+00  0.000000D+00
     24  0.142132D+00  0.325755D+00  0.000000D+00  0.000000D+00  0.236385D+00
     25  0.364653D+00 -0.339835D-01  0.000000D+00  0.000000D+00  0.501026D-02
               16            17            18            19            20 
     16  0.100000D+01
     17  0.658292D+00  0.100000D+01
     18  0.000000D+00  0.000000D+00  0.100000D+01
     19  0.000000D+00  0.000000D+00  0.000000D+00  0.100000D+01
     20  0.000000D+00  0.000000D+00  0.000000D+00  0.000000D+00  0.100000D+01
     21  0.425955D-01  0.207908D+00  0.000000D+00 -0.513526D-01  0.000000D+00
     22  0.207908D+00  0.492649D+00  0.000000D+00 -0.126177D+00  0.000000D+00
     23  0.000000D+00  0.000000D+00  0.799730D-02  0.000000D+00  0.000000D+00
     24  0.513526D-01  0.126177D+00  0.000000D+00 -0.692350D-01  0.000000D+00
     25  0.000000D+00  0.000000D+00  0.000000D+00  0.000000D+00  0.799730D-02
               21            22            23            24            25 
     21  0.100000D+01
     22  0.658292D+00  0.100000D+01
     23  0.000000D+00  0.000000D+00  0.100000D+01
     24  0.000000D+00  0.000000D+00  0.000000D+00  0.100000D+01
     25  0.000000D+00  0.000000D+00  0.000000D+00  0.000000D+00  0.100000D+01
 *** Kinetic Energy *** 
                1             2             3             4             5 
      1  0.295401D+02
      2 -0.218540D+01  0.171121D+01
      3  0.000000D+00  0.000000D+00  0.425188D+01
      4  0.000000D+00  0.000000D+00  0.000000D+00  0.425188D+01
      5  0.000000D+00  0.000000D+00  0.000000D+00  0.000000D+00  0.425188D+01
      6  0.131283D+00  0.480048D+00  0.000000D+00  0.000000D+00  0.000000D+00
      7  0.000000D+00  0.000000D+00  0.547243D+00  0.000000D+00  0.000000D+00
      8  0.000000D+00  0.000000D+00  0.000000D+00  0.547243D+00  0.000000D+00
      9  0.000000D+00  0.000000D+00  0.000000D+00  0.000000D+00  0.547243D+00
     10 -0.465828D+00  0.249764D+00  0.000000D+00  0.000000D+00  0.000000D+00
     11 -0.465828D+00  0.249764D+00  0.000000D+00  0.000000D+00  0.000000D+00
     12 -0.465828D+00  0.249764D+00  0.000000D+00  0.000000D+00  0.000000D+00
     13  0.000000D+00  0.000000D+00  0.000000D+00  0.000000D+00  0.000000D+00
     14  0.000000D+00  0.000000D+00  0.000000D+00  0.000000D+00  0.000000D+00
     15  0.000000D+00  0.000000D+00  0.000000D+00  0.000000D+00  0.000000D+00
     16 -0.222688D-01  0.195359D-01  0.000000D+00  0.181464D+00 -0.128246D+00
     17  0.213242D-01  0.109555D+00  0.000000D+00  0.692156D-01 -0.489168D-01
     18  0.000000D+00  0.000000D+00  0.958213D-01  0.000000D+00  0.000000D+00
     19  0.641123D-01 -0.253794D+00  0.000000D+00 -0.519083D+00  0.434571D+00
     20 -0.453101D-01  0.179364D+00  0.000000D+00  0.434571D+00 -0.211303D+00
     21 -0.222688D-01  0.195359D-01  0.000000D+00 -0.181464D+00 -0.128246D+00
     22  0.213242D-01  0.109555D+00  0.000000D+00 -0.692156D-01 -0.489168D-01
     23  0.000000D+00  0.000000D+00  0.958213D-01  0.000000D+00  0.000000D+00
     24 -0.641123D-01  0.253794D+00  0.000000D+00 -0.519083D+00 -0.434571D+00
     25 -0.453101D-01  0.179364D+00  0.000000D+00 -0.434571D+00 -0.211303D+00
                6             7             8             9            10 
      6  0.405009D+00
      7  0.000000D+00  0.675015D+00
      8  0.000000D+00  0.000000D+00  0.675015D+00
      9  0.000000D+00  0.000000D+00  0.000000D+00  0.675015D+00
     10  0.328083D+00  0.000000D+00  0.000000D+00  0.000000D+00  0.173333D+01
     11  0.328083D+00  0.000000D+00  0.000000D+00  0.000000D+00 -0.133333D+00
     12  0.328083D+00  0.000000D+00  0.000000D+00  0.000000D+00 -0.133333D+00
     13  0.000000D+00  0.000000D+00  0.000000D+00  0.000000D+00  0.000000D+00
     14  0.000000D+00  0.000000D+00  0.000000D+00  0.000000D+00  0.000000D+00
     15  0.000000D+00  0.000000D+00  0.000000D+00  0.000000D+00  0.000000D+00
     16  0.141953D+00  0.000000D+00  0.347152D+00 -0.245342D+00 -0.844300D-01
     17  0.161007D+00  0.000000D+00  0.172084D+00 -0.121617D+00  0.917912D-01
     18  0.000000D+00  0.214262D+00  0.000000D+00  0.000000D+00  0.000000D+00
     19 -0.164943D+00  0.000000D+00 -0.103774D+00  0.224766D+00  0.502814D-01
     20  0.116570D+00  0.000000D+00  0.224766D+00  0.554134D-01 -0.355354D-01
     21  0.141953D+00  0.000000D+00 -0.347152D+00 -0.245342D+00 -0.844300D-01
     22  0.161007D+00  0.000000D+00 -0.172084D+00 -0.121617D+00  0.917912D-01
     23  0.000000D+00  0.214262D+00  0.000000D+00  0.000000D+00  0.000000D+00
     24  0.164943D+00  0.000000D+00 -0.103774D+00 -0.224766D+00 -0.502814D-01
     25  0.116570D+00  0.000000D+00 -0.224766D+00  0.554134D-01 -0.355354D-01
               11            12            13            14            15 
     11  0.173333D+01
     12 -0.133333D+00  0.173333D+01
     13  0.000000D+00  0.000000D+00  0.280000D+01
     14  0.000000D+00  0.000000D+00  0.000000D+00  0.280000D+01
     15  0.000000D+00  0.000000D+00  0.000000D+00  0.000000D+00  0.280000D+01
     16  0.352671D+00  0.133888D+00  0.000000D+00  0.000000D+00 -0.535052D+00
     17  0.130713D+00  0.111231D+00  0.000000D+00  0.000000D+00 -0.476441D-01
     18  0.000000D+00  0.000000D+00  0.592513D+00 -0.418747D+00  0.000000D+00
     19 -0.313075D+00 -0.472927D+00  0.000000D+00  0.000000D+00  0.863529D+00
     20  0.704787D+00 -0.149295D+00  0.000000D+00  0.000000D+00 -0.313710D+00
     21  0.352671D+00  0.133888D+00  0.000000D+00  0.000000D+00  0.535052D+00
     22  0.130713D+00  0.111231D+00  0.000000D+00  0.000000D+00  0.476441D-01
     23  0.000000D+00  0.000000D+00 -0.592513D+00 -0.418747D+00  0.000000D+00
     24  0.313075D+00  0.472927D+00  0.000000D+00  0.000000D+00  0.863529D+00
     25  0.704787D+00 -0.149295D+00  0.000000D+00  0.000000D+00  0.313710D+00
               16            17            18            19            20 
     16  0.139568D+01
     17  0.259735D+00  0.241917D+00
     18  0.000000D+00  0.000000D+00  0.275000D+01
     19  0.000000D+00  0.000000D+00  0.000000D+00  0.275000D+01
     20  0.000000D+00  0.000000D+00  0.000000D+00  0.000000D+00  0.275000D+01
     21 -0.422876D-01  0.188643D-01  0.000000D+00  0.491329D-01  0.000000D+00
     22  0.188643D-01  0.629304D-01  0.000000D+00 -0.449060D-01  0.000000D+00
     23  0.000000D+00  0.000000D+00 -0.204852D-01  0.000000D+00  0.000000D+00
     24 -0.491329D-01  0.449060D-01  0.000000D+00  0.923911D-01  0.000000D+00
     25  0.000000D+00  0.000000D+00  0.000000D+00  0.000000D+00 -0.204852D-01
               21            22            23            24            25 
     21  0.139568D+01
     22  0.259735D+00  0.241917D+00
     23  0.000000D+00  0.000000D+00  0.275000D+01
     24  0.000000D+00  0.000000D+00  0.000000D+00  0.275000D+01
     25  0.000000D+00  0.000000D+00  0.000000D+00  0.000000D+00  0.275000D+01
 Entering OneElI...
 Calculate potential energy integrals
    NBasis =  25  MinDer = 0  MaxDer = 0
 Requested accuracy = 0.1000D-12
 Symmetry will be used
 PrsmSu:  NPrtUS=   2 ThrOK=T IAlg=1 NPAlg=2 LenDen=           0.
 Prism:   IPart=     0 DynPar=F LinDyn=F Incr=           1.
 PRISM was handed    67102063 working-precision words and    55 shell-pairs
 PRISM was handed    67102063 working-precision words and    55 shell-pairs
 IPart=  1 NShTot=          18 NBatch=           6 AvBLen=         3.0
 IPart=  0 NShTot=          84 NBatch=          28 AvBLen=         3.0
 PrSmSu:  NxtVal=              3.
 ***** Potential Energy ***** 
                1             2             3             4             5 
      1  0.625837D+02
      2  0.518147D+01  0.116333D+02
      3  0.000000D+00  0.000000D+00  0.126807D+02
      4  0.000000D+00  0.000000D+00  0.000000D+00  0.127949D+02
      5 -0.255009D-01 -0.173424D+00  0.000000D+00  0.000000D+00  0.127377D+02
      6  0.550282D+01  0.786858D+01  0.000000D+00  0.000000D+00 -0.163727D+00
      7  0.000000D+00  0.000000D+00  0.427083D+01  0.000000D+00  0.000000D+00
      8  0.000000D+00  0.000000D+00  0.000000D+00  0.437502D+01  0.000000D+00
      9 -0.351398D-02 -0.110984D+00  0.000000D+00  0.000000D+00  0.432287D+01
     10  0.634175D+00  0.486129D+01  0.000000D+00  0.000000D+00 -0.601656D-01
     11  0.635647D+00  0.496119D+01  0.000000D+00  0.000000D+00 -0.116353D+00
     12  0.634910D+00  0.491119D+01  0.000000D+00  0.000000D+00 -0.208561D+00
     13  0.000000D+00  0.000000D+00  0.000000D+00  0.000000D+00  0.000000D+00
     14  0.000000D+00  0.000000D+00 -0.104210D+00  0.000000D+00  0.000000D+00
     15  0.000000D+00  0.000000D+00  0.000000D+00 -0.201530D+00  0.000000D+00
     16  0.109634D+01  0.236445D+01  0.000000D+00  0.202536D+01 -0.145559D+01
     17  0.223490D+01  0.372781D+01  0.000000D+00  0.100234D+01 -0.782704D+00
     18  0.000000D+00  0.000000D+00  0.116496D+01  0.000000D+00  0.000000D+00
     19 -0.144030D+01 -0.285113D+01  0.000000D+00 -0.213507D+01  0.235916D+01
     20  0.101733D+01  0.199861D+01  0.000000D+00  0.232123D+01 -0.487851D+00
     21  0.109634D+01  0.236445D+01  0.000000D+00 -0.202536D+01 -0.145559D+01
     22  0.223490D+01  0.372781D+01  0.000000D+00 -0.100234D+01 -0.782704D+00
     23  0.000000D+00  0.000000D+00  0.116496D+01  0.000000D+00  0.000000D+00
     24  0.144030D+01  0.285113D+01  0.000000D+00 -0.213507D+01 -0.235916D+01
     25  0.101733D+01  0.199861D+01  0.000000D+00 -0.232123D+01 -0.487851D+00
                6             7             8             9            10 
      6  0.767054D+01
      7  0.000000D+00  0.524651D+01
      8  0.000000D+00  0.000000D+00  0.548532D+01
      9 -0.231595D+00  0.000000D+00  0.000000D+00  0.536579D+01
     10  0.501424D+01  0.000000D+00  0.000000D+00 -0.709749D-01  0.701264D+01
     11  0.518555D+01  0.000000D+00  0.000000D+00 -0.168309D+00  0.237524D+01
     12  0.509980D+01  0.000000D+00  0.000000D+00 -0.261540D+00  0.235637D+01
     13  0.000000D+00  0.000000D+00  0.000000D+00  0.000000D+00  0.000000D+00
     14  0.000000D+00 -0.122932D+00  0.000000D+00  0.000000D+00  0.000000D+00
     15  0.000000D+00  0.000000D+00 -0.291520D+00  0.000000D+00  0.000000D+00
     16  0.303768D+01  0.000000D+00  0.287791D+01 -0.206203D+01  0.119934D+01
     17  0.452548D+01  0.000000D+00  0.190723D+01 -0.147693D+01  0.269977D+01
     18  0.000000D+00  0.159867D+01  0.000000D+00  0.000000D+00  0.000000D+00
     19 -0.216889D+01  0.000000D+00 -0.494606D+00  0.150044D+01 -0.110825D+01
     20  0.150383D+01  0.000000D+00  0.145581D+01  0.564539D+00  0.775571D+00
     21  0.303768D+01  0.000000D+00 -0.287791D+01 -0.206203D+01  0.119934D+01
     22  0.452548D+01  0.000000D+00 -0.190723D+01 -0.147693D+01  0.269977D+01
     23  0.000000D+00  0.159867D+01  0.000000D+00  0.000000D+00  0.000000D+00
     24  0.216889D+01  0.000000D+00 -0.494606D+00 -0.150044D+01  0.110825D+01
     25  0.150383D+01  0.000000D+00 -0.145581D+01  0.564539D+00  0.775571D+00
               11            12            13            14            15 
     11  0.734567D+01
     12  0.244745D+01  0.715225D+01
     13  0.000000D+00  0.000000D+00  0.712571D+01
     14  0.000000D+00  0.000000D+00  0.000000D+00  0.706911D+01
     15  0.000000D+00  0.000000D+00  0.000000D+00  0.000000D+00  0.734235D+01
     16  0.304128D+01  0.214296D+01  0.000000D+00  0.000000D+00 -0.226705D+01
     17  0.310159D+01  0.292487D+01  0.000000D+00  0.000000D+00 -0.424248D+00
     18  0.000000D+00  0.000000D+00  0.209670D+01 -0.149507D+01  0.000000D+00
     19 -0.146788D+01 -0.252940D+01  0.000000D+00  0.000000D+00  0.193422D+01
     20  0.272881D+01  0.384171D-01  0.000000D+00  0.000000D+00 -0.306853D+00
     21  0.304128D+01  0.214296D+01  0.000000D+00  0.000000D+00  0.226705D+01
     22  0.310159D+01  0.292487D+01  0.000000D+00  0.000000D+00  0.424248D+00
     23  0.000000D+00  0.000000D+00 -0.209670D+01 -0.149507D+01  0.000000D+00
     24  0.146788D+01  0.252940D+01  0.000000D+00  0.000000D+00  0.193422D+01
     25  0.272881D+01  0.384171D-01  0.000000D+00  0.000000D+00  0.306853D+00
               16            17            18            19            20 
     16  0.638974D+01
     17  0.381164D+01  0.474249D+01
     18  0.000000D+00  0.000000D+00  0.554989D+01
     19 -0.107953D+01 -0.916498D+00  0.000000D+00  0.617756D+01
     20  0.721196D+00  0.611182D+00  0.000000D+00 -0.425068D+00  0.585030D+01
     21  0.349910D+00  0.139985D+01  0.000000D+00 -0.444647D+00  0.619905D-01
     22  0.139985D+01  0.276650D+01  0.000000D+00 -0.111636D+01  0.276789D+00
     23  0.000000D+00  0.000000D+00  0.587497D-01  0.000000D+00  0.000000D+00
     24  0.444647D+00  0.111636D+01  0.000000D+00 -0.615794D+00  0.704503D-01
     25  0.619905D-01  0.276789D+00  0.000000D+00 -0.704503D-01  0.801160D-01
               21            22            23            24            25 
     21  0.638974D+01
     22  0.381164D+01  0.474249D+01
     23  0.000000D+00  0.000000D+00  0.554989D+01
     24  0.107953D+01  0.916498D+00  0.000000D+00  0.617756D+01
     25  0.721196D+00  0.611182D+00  0.000000D+00  0.425068D+00  0.585030D+01
 ****** Core Hamiltonian ****** 
                1             2             3             4             5 
      1 -0.330435D+02
      2 -0.736688D+01 -0.992206D+01
      3  0.000000D+00  0.000000D+00 -0.842880D+01
      4  0.000000D+00  0.000000D+00  0.000000D+00 -0.854302D+01
      5  0.255009D-01  0.173424D+00  0.000000D+00  0.000000D+00 -0.848585D+01
      6 -0.537154D+01 -0.738853D+01  0.000000D+00  0.000000D+00  0.163727D+00
      7  0.000000D+00  0.000000D+00 -0.372359D+01  0.000000D+00  0.000000D+00
      8  0.000000D+00  0.000000D+00  0.000000D+00 -0.382778D+01  0.000000D+00
      9  0.351398D-02  0.110984D+00  0.000000D+00  0.000000D+00 -0.377563D+01
     10 -0.110000D+01 -0.461153D+01  0.000000D+00  0.000000D+00  0.601656D-01
     11 -0.110148D+01 -0.471143D+01  0.000000D+00  0.000000D+00  0.116353D+00
     12 -0.110074D+01 -0.466142D+01  0.000000D+00  0.000000D+00  0.208561D+00
     13  0.000000D+00  0.000000D+00  0.000000D+00  0.000000D+00  0.000000D+00
     14  0.000000D+00  0.000000D+00  0.104210D+00  0.000000D+00  0.000000D+00
     15  0.000000D+00  0.000000D+00  0.000000D+00  0.201530D+00  0.000000D+00
     16 -0.111861D+01 -0.234492D+01  0.000000D+00 -0.184389D+01  0.132734D+01
     17 -0.221358D+01 -0.361826D+01  0.000000D+00 -0.933128D+00  0.733787D+00
     18  0.000000D+00  0.000000D+00 -0.106914D+01  0.000000D+00  0.000000D+00
     19  0.150442D+01  0.259734D+01  0.000000D+00  0.161599D+01 -0.192459D+01
     20 -0.106264D+01 -0.181925D+01  0.000000D+00 -0.188665D+01  0.276548D+00
     21 -0.111861D+01 -0.234492D+01  0.000000D+00  0.184389D+01  0.132734D+01
     22 -0.221358D+01 -0.361826D+01  0.000000D+00  0.933128D+00  0.733787D+00
     23  0.000000D+00  0.000000D+00 -0.106914D+01  0.000000D+00  0.000000D+00
     24 -0.150442D+01 -0.259734D+01  0.000000D+00  0.161599D+01  0.192459D+01
     25 -0.106264D+01 -0.181925D+01  0.000000D+00  0.188665D+01  0.276548D+00
                6             7             8             9            10 
      6 -0.726553D+01
      7  0.000000D+00 -0.457150D+01
      8  0.000000D+00  0.000000D+00 -0.481031D+01
      9  0.231595D+00  0.000000D+00  0.000000D+00 -0.469077D+01
     10 -0.468616D+01  0.000000D+00  0.000000D+00  0.709749D-01 -0.527930D+01
     11 -0.485747D+01  0.000000D+00  0.000000D+00  0.168309D+00 -0.250857D+01
     12 -0.477172D+01  0.000000D+00  0.000000D+00  0.261540D+00 -0.248970D+01
     13  0.000000D+00  0.000000D+00  0.000000D+00  0.000000D+00  0.000000D+00
     14  0.000000D+00  0.122932D+00  0.000000D+00  0.000000D+00  0.000000D+00
     15  0.000000D+00  0.000000D+00  0.291520D+00  0.000000D+00  0.000000D+00
     16 -0.289573D+01  0.000000D+00 -0.253076D+01  0.181669D+01 -0.128377D+01
     17 -0.436447D+01  0.000000D+00 -0.173514D+01  0.135531D+01 -0.260798D+01
     18  0.000000D+00 -0.138441D+01  0.000000D+00  0.000000D+00  0.000000D+00
     19  0.200394D+01  0.000000D+00  0.390832D+00 -0.127567D+01  0.115853D+01
     20 -0.138726D+01  0.000000D+00 -0.123105D+01 -0.509125D+00 -0.811106D+00
     21 -0.289573D+01  0.000000D+00  0.253076D+01  0.181669D+01 -0.128377D+01
     22 -0.436447D+01  0.000000D+00  0.173514D+01  0.135531D+01 -0.260798D+01
     23  0.000000D+00 -0.138441D+01  0.000000D+00  0.000000D+00  0.000000D+00
     24 -0.200394D+01  0.000000D+00  0.390832D+00  0.127567D+01 -0.115853D+01
     25 -0.138726D+01  0.000000D+00  0.123105D+01 -0.509125D+00 -0.811106D+00
               11            12            13            14            15 
     11 -0.561234D+01
     12 -0.258078D+01 -0.541892D+01
     13  0.000000D+00  0.000000D+00 -0.432571D+01
     14  0.000000D+00  0.000000D+00  0.000000D+00 -0.426911D+01
     15  0.000000D+00  0.000000D+00  0.000000D+00  0.000000D+00 -0.454235D+01
     16 -0.268861D+01 -0.200907D+01  0.000000D+00  0.000000D+00  0.173200D+01
     17 -0.297088D+01 -0.281364D+01  0.000000D+00  0.000000D+00  0.376604D+00
     18  0.000000D+00  0.000000D+00 -0.150419D+01  0.107633D+01  0.000000D+00
     19  0.115480D+01  0.205648D+01  0.000000D+00  0.000000D+00 -0.107069D+01
     20 -0.202402D+01 -0.187713D+00  0.000000D+00  0.000000D+00 -0.685687D-02
     21 -0.268861D+01 -0.200907D+01  0.000000D+00  0.000000D+00 -0.173200D+01
     22 -0.297088D+01 -0.281364D+01  0.000000D+00  0.000000D+00 -0.376604D+00
     23  0.000000D+00  0.000000D+00  0.150419D+01  0.107633D+01  0.000000D+00
     24 -0.115480D+01 -0.205648D+01  0.000000D+00  0.000000D+00 -0.107069D+01
     25 -0.202402D+01 -0.187713D+00  0.000000D+00  0.000000D+00  0.685687D-02
               16            17            18            19            20 
     16 -0.499406D+01
     17 -0.355191D+01 -0.450057D+01
     18  0.000000D+00  0.000000D+00 -0.279989D+01
     19  0.107953D+01  0.916498D+00  0.000000D+00 -0.342756D+01
     20 -0.721196D+00 -0.611182D+00  0.000000D+00  0.425068D+00 -0.310030D+01
     21 -0.392198D+00 -0.138099D+01  0.000000D+00  0.493780D+00 -0.619905D-01
     22 -0.138099D+01 -0.270357D+01  0.000000D+00  0.107146D+01 -0.276789D+00
     23  0.000000D+00  0.000000D+00 -0.792349D-01  0.000000D+00  0.000000D+00
     24 -0.493780D+00 -0.107146D+01  0.000000D+00  0.708185D+00 -0.704503D-01
     25 -0.619905D-01 -0.276789D+00  0.000000D+00  0.704503D-01 -0.100601D+00
               21            22            23            24            25 
     21 -0.499406D+01
     22 -0.355191D+01 -0.450057D+01
     23  0.000000D+00  0.000000D+00 -0.279989D+01
     24 -0.107953D+01 -0.916498D+00  0.000000D+00 -0.342756D+01
     25 -0.721196D+00 -0.611182D+00  0.000000D+00 -0.425068D+00 -0.310030D+01
 SVDSVc IOpt=  1 IR=1
 SVDSVc V= 1.59D+01 6.77D+00 4.11D+00 3.63D+00 3.24D+00 2.83D+00 1.71D+00 1.11D+00 8.79D-01 7.25D-01
 SVDSVc V= 2.67D-01 8.19D-02
 SVDSVc IOpt=  1 IR=2
 SVDSVc V= 4.63D+00 1.35D+00
 SVDSVc IOpt=  1 IR=3
 SVDSVc V= 6.36D+00 4.28D+00 2.15D+00 1.23D+00
 SVDSVc IOpt=  1 IR=4
 SVDSVc V= 7.65D+00 4.56D+00 3.19D+00 1.75D+00 1.09D+00 3.54D-01 1.73D-01
 TstOVc:  Largest diagonal error= 5.77D-15 IB=1 I=   12.
 TstOVc:  Largest same sym error= 5.48D-15 IB=1 I=   12 J=   11.
 TstOVc:  Largest diff sym error= 4.19D-17 IB=4 JB=1 I=   19 J=    9.
 Orthogonalized basis functions: 
                 1             2             3             4             5 
      1   0.429696D-01  0.370050D-01  0.926288D+00  0.872134D-01  0.257885D+00
      2   0.206153D+00  0.973736D-01  0.188668D+00 -0.403517D-01 -0.273049D+00
      3   0.000000D+00  0.000000D+00  0.000000D+00  0.000000D+00  0.000000D+00
      4   0.000000D+00  0.000000D+00  0.000000D+00  0.000000D+00  0.000000D+00
      5  -0.238535D-01  0.472187D+00 -0.100194D+00 -0.131944D+00  0.528552D+00
      6   0.244893D+00  0.745307D-01 -0.227943D-01 -0.398317D-01  0.747491D-01
      7   0.000000D+00  0.000000D+00  0.000000D+00  0.000000D+00  0.000000D+00
      8   0.000000D+00  0.000000D+00  0.000000D+00  0.000000D+00  0.000000D+00
      9  -0.355463D-01  0.521871D+00 -0.561392D-02 -0.107914D-01 -0.262024D+00
     10   0.171124D+00  0.870358D-01 -0.694665D-01 -0.160409D+00 -0.154416D+00
     11   0.186536D+00  0.665872D-01 -0.153157D+00  0.602203D+00 -0.234585D-01
     12   0.179342D+00  0.263920D-01 -0.618447D-01 -0.557999D+00 -0.552168D-01
     13   0.000000D+00  0.000000D+00  0.000000D+00  0.000000D+00  0.000000D+00
     14   0.000000D+00  0.000000D+00  0.000000D+00  0.000000D+00  0.000000D+00
     15   0.000000D+00  0.000000D+00  0.000000D+00  0.000000D+00  0.000000D+00
     16   0.592075D-01 -0.832208D-01 -0.545726D-01  0.814031D-01  0.186980D+00
     17   0.842986D-01 -0.526003D-01 -0.582798D-01  0.397004D-02  0.228538D+00
     18   0.000000D+00  0.000000D+00  0.000000D+00  0.000000D+00  0.000000D+00
     19  -0.357052D-01  0.649499D-01 -0.555160D-01  0.126230D+00  0.242195D+00
     20   0.219831D-01  0.519918D-01  0.558623D-02  0.266062D+00 -0.180292D+00
     21   0.592075D-01 -0.832208D-01 -0.545726D-01  0.814031D-01  0.186980D+00
     22   0.842986D-01 -0.526003D-01 -0.582798D-01  0.397004D-02  0.228538D+00
     23   0.000000D+00  0.000000D+00  0.000000D+00  0.000000D+00  0.000000D+00
     24   0.357052D-01 -0.649499D-01  0.555160D-01 -0.126230D+00 -0.242195D+00
     25   0.219831D-01  0.519918D-01  0.558623D-02  0.266062D+00 -0.180292D+00
                 6             7             8             9            10 
      1  -0.534052D-02 -0.161156D+00 -0.290643D+00  0.931348D-01 -0.202007D+00
      2   0.829368D-02  0.630189D+00  0.130667D+01 -0.427169D+00  0.277661D+00
      3   0.000000D+00  0.000000D+00  0.000000D+00  0.000000D+00  0.000000D+00
      4   0.000000D+00  0.000000D+00  0.000000D+00  0.000000D+00  0.000000D+00
      5  -0.720449D-01  0.834621D+00 -0.334911D+00  0.325387D+00  0.150390D-01
      6   0.601014D-01 -0.265242D+00 -0.867851D-01 -0.101246D+00  0.318448D+00
      7   0.000000D+00  0.000000D+00  0.000000D+00  0.000000D+00  0.000000D+00
      8   0.000000D+00  0.000000D+00  0.000000D+00  0.000000D+00  0.000000D+00
      9  -0.122230D+00 -0.811206D+00  0.163783D-01 -0.673579D+00  0.159303D+00
     10   0.939046D+00 -0.270184D-01 -0.439572D+00  0.164256D+00 -0.706436D+00
     11  -0.308648D+00  0.162279D+00 -0.573477D+00 -0.613065D+00 -0.420030D+00
     12  -0.562064D+00 -0.311018D+00  0.223442D-01  0.857863D+00 -0.625675D+00
     13   0.000000D+00  0.000000D+00  0.000000D+00  0.000000D+00  0.000000D+00
     14   0.000000D+00  0.000000D+00  0.000000D+00  0.000000D+00  0.000000D+00
     15   0.000000D+00  0.000000D+00  0.000000D+00  0.000000D+00  0.000000D+00
     16  -0.818806D-01 -0.633499D-01  0.105840D+00 -0.138543D+00 -0.554735D+00
     17   0.423189D-01 -0.168157D+00 -0.461400D-01  0.530186D-01  0.812563D+00
     18   0.000000D+00  0.000000D+00  0.000000D+00  0.000000D+00  0.000000D+00
     19   0.123898D+00 -0.243613D+00  0.530178D+00  0.197254D+00 -0.260250D+00
     20  -0.200433D-01  0.925685D-03  0.154876D-01  0.775352D+00  0.126699D+00
     21  -0.818806D-01 -0.633499D-01  0.105840D+00 -0.138543D+00 -0.554735D+00
     22   0.423189D-01 -0.168157D+00 -0.461400D-01  0.530186D-01  0.812563D+00
     23   0.000000D+00  0.000000D+00  0.000000D+00  0.000000D+00  0.000000D+00
     24  -0.123898D+00  0.243613D+00 -0.530178D+00 -0.197254D+00  0.260250D+00
     25  -0.200433D-01  0.925685D-03  0.154876D-01  0.775352D+00  0.126699D+00
                11            12            13            14            15 
      1  -0.165879D+00 -0.401062D+00  0.000000D+00  0.000000D+00  0.000000D+00
      2   0.940545D-01 -0.982077D+00  0.000000D+00  0.000000D+00  0.000000D+00
      3   0.000000D+00  0.000000D+00  0.000000D+00  0.000000D+00  0.519815D+00
      4   0.000000D+00  0.000000D+00  0.000000D+00  0.000000D+00  0.000000D+00
      5   0.419978D+00  0.155214D+00  0.000000D+00  0.000000D+00  0.000000D+00
      6   0.767449D-01  0.580639D+01  0.000000D+00  0.000000D+00  0.000000D+00
      7   0.000000D+00  0.000000D+00  0.000000D+00  0.000000D+00  0.547624D+00
      8   0.000000D+00  0.000000D+00  0.000000D+00  0.000000D+00  0.000000D+00
      9   0.924102D+00 -0.110429D+01  0.000000D+00  0.000000D+00  0.000000D+00
     10  -0.641879D-01 -0.154981D+01  0.000000D+00  0.000000D+00  0.000000D+00
     11  -0.169031D+01 -0.112012D+01  0.000000D+00  0.000000D+00  0.000000D+00
     12  -0.891568D+00 -0.123713D+01  0.000000D+00  0.000000D+00  0.000000D+00
     13   0.000000D+00  0.000000D+00  0.834762D+00 -0.755726D+00  0.000000D+00
     14   0.000000D+00  0.000000D+00  0.000000D+00  0.000000D+00 -0.876129D-01
     15   0.000000D+00  0.000000D+00  0.000000D+00  0.000000D+00  0.000000D+00
     16   0.131626D+01 -0.300255D+00  0.000000D+00  0.000000D+00  0.000000D+00
     17   0.102104D+00 -0.133400D+01  0.000000D+00  0.000000D+00  0.000000D+00
     18   0.000000D+00  0.000000D+00  0.204040D+00  0.772951D+00  0.112998D+00
     19  -0.748177D+00  0.153193D+00  0.000000D+00  0.000000D+00  0.000000D+00
     20   0.511517D+00  0.116617D-01  0.000000D+00  0.000000D+00  0.000000D+00
     21   0.131626D+01 -0.300255D+00  0.000000D+00  0.000000D+00  0.000000D+00
     22   0.102104D+00 -0.133400D+01  0.000000D+00  0.000000D+00  0.000000D+00
     23   0.000000D+00  0.000000D+00 -0.204040D+00 -0.772951D+00  0.112998D+00
     24   0.748177D+00 -0.153193D+00  0.000000D+00  0.000000D+00  0.000000D+00
     25   0.511517D+00  0.116617D-01  0.000000D+00  0.000000D+00  0.000000D+00
                16            17            18            19            20 
      1   0.000000D+00  0.000000D+00  0.000000D+00  0.000000D+00  0.000000D+00
      2   0.000000D+00  0.000000D+00  0.000000D+00  0.000000D+00  0.000000D+00
      3   0.165944D+00  0.983342D+00  0.267208D+00  0.000000D+00  0.000000D+00
      4   0.000000D+00  0.000000D+00  0.000000D+00  0.400682D+00  0.176269D+00
      5   0.000000D+00  0.000000D+00  0.000000D+00  0.000000D+00  0.000000D+00
      6   0.000000D+00  0.000000D+00  0.000000D+00  0.000000D+00  0.000000D+00
      7   0.101148D+00 -0.767502D+00 -0.798337D+00  0.000000D+00  0.000000D+00
      8   0.000000D+00  0.000000D+00  0.000000D+00  0.467285D+00  0.179627D+00
      9   0.000000D+00  0.000000D+00  0.000000D+00  0.000000D+00  0.000000D+00
     10   0.000000D+00  0.000000D+00  0.000000D+00  0.000000D+00  0.000000D+00
     11   0.000000D+00  0.000000D+00  0.000000D+00  0.000000D+00  0.000000D+00
     12   0.000000D+00  0.000000D+00  0.000000D+00  0.000000D+00  0.000000D+00
     13   0.000000D+00  0.000000D+00  0.000000D+00  0.000000D+00  0.000000D+00
     14   0.906279D+00 -0.245506D+00  0.500273D+00  0.000000D+00  0.000000D+00
     15   0.000000D+00  0.000000D+00  0.000000D+00 -0.123465D+00  0.840210D+00
     16   0.000000D+00  0.000000D+00  0.000000D+00  0.137534D+00 -0.983598D-01
     17   0.000000D+00  0.000000D+00  0.000000D+00  0.896494D-01  0.781360D-02
     18  -0.137723D+00 -0.248595D+00  0.756917D+00  0.000000D+00  0.000000D+00
     19   0.000000D+00  0.000000D+00  0.000000D+00 -0.303105D-01  0.118967D+00
     20   0.000000D+00  0.000000D+00  0.000000D+00  0.658844D-01  0.565565D-01
     21   0.000000D+00  0.000000D+00  0.000000D+00 -0.137534D+00  0.983598D-01
     22   0.000000D+00  0.000000D+00  0.000000D+00 -0.896494D-01 -0.781360D-02
     23  -0.137723D+00 -0.248595D+00  0.756917D+00  0.000000D+00  0.000000D+00
     24   0.000000D+00  0.000000D+00  0.000000D+00 -0.303105D-01  0.118967D+00
     25   0.000000D+00  0.000000D+00  0.000000D+00 -0.658844D-01 -0.565565D-01
                21            22            23            24            25 
      1   0.000000D+00  0.000000D+00  0.000000D+00  0.000000D+00  0.000000D+00
      2   0.000000D+00  0.000000D+00  0.000000D+00  0.000000D+00  0.000000D+00
      3   0.000000D+00  0.000000D+00  0.000000D+00  0.000000D+00  0.000000D+00
      4   0.673732D+00 -0.305878D+00  0.919411D+00 -0.486996D+00 -0.211395D+00
      5   0.000000D+00  0.000000D+00  0.000000D+00  0.000000D+00  0.000000D+00
      6   0.000000D+00  0.000000D+00  0.000000D+00  0.000000D+00  0.000000D+00
      7   0.000000D+00  0.000000D+00  0.000000D+00  0.000000D+00  0.000000D+00
      8  -0.395376D+00 -0.159008D-01 -0.815146D+00  0.637540D-03 -0.235040D+01
      9   0.000000D+00  0.000000D+00  0.000000D+00  0.000000D+00  0.000000D+00
     10   0.000000D+00  0.000000D+00  0.000000D+00  0.000000D+00  0.000000D+00
     11   0.000000D+00  0.000000D+00  0.000000D+00  0.000000D+00  0.000000D+00
     12   0.000000D+00  0.000000D+00  0.000000D+00  0.000000D+00  0.000000D+00
     13   0.000000D+00  0.000000D+00  0.000000D+00  0.000000D+00  0.000000D+00
     14   0.000000D+00  0.000000D+00  0.000000D+00  0.000000D+00  0.000000D+00
     15  -0.222759D-01 -0.290468D+00 -0.224907D+00  0.782204D+00  0.118845D+01
     16  -0.180755D+00 -0.576266D-01  0.246362D+00  0.112604D+01  0.103613D+01
     17  -0.172977D+00 -0.493321D-01 -0.724484D-01 -0.111778D+01  0.150177D+01
     18   0.000000D+00  0.000000D+00  0.000000D+00  0.000000D+00  0.000000D+00
     19  -0.272169D+00  0.269847D+00  0.654648D+00 -0.268967D+00 -0.634978D+00
     20   0.153760D+00  0.668735D+00 -0.172411D+00  0.152364D+00  0.547204D+00
     21   0.180755D+00  0.576266D-01 -0.246362D+00 -0.112604D+01 -0.103613D+01
     22   0.172977D+00  0.493321D-01  0.724484D-01  0.111778D+01 -0.150177D+01
     23   0.000000D+00  0.000000D+00  0.000000D+00  0.000000D+00  0.000000D+00
     24  -0.272169D+00  0.269847D+00  0.654648D+00 -0.268967D+00 -0.634978D+00
     25  -0.153760D+00 -0.668735D+00  0.172411D+00 -0.152364D+00 -0.547204D+00
 NBasis=    25 RedAO= T EigKep=  4.09D-02  NBF=    12     2     4     7
 NBsUse=    25 1.00D-06 EigRej= -1.00D+00 NBFU=    12     2     4     7
 Leave Link  302 at Fri Mar  6 20:17:51 2015, MaxMem=   134217728 cpu:         0.2
 (Enter /opt/g09_D01_em64t/g09/l401.exe)
 ExpMin= 1.61D-01 ExpMax= 5.48D+03 ExpMxC= 8.25D+02 IAcc=1 IRadAn=         1 AccDes= 0.00D+00
 Harris functional with IExCor=  205 and IRadAn=       1 diagonalized for initial guess.
 HarFok:  IExCor=  205 AccDes= 0.00D+00 IRadAn=         1 IDoV= 1 UseB2=F ITyADJ=14
 ICtDFT=  3500011 ScaDFX=  1.000000  1.000000  1.000000  1.000000
 FoFCou: FMM=F IPFlag=           0 FMFlag=      100000 FMFlg1=           0
         NFxFlg=           0 DoJE=T BraDBF=F KetDBF=T FulRan=T
         wScrn=  0.000000 ICntrl=     500 IOpCl=  0 I1Cent=   200000004 NGrid=           0
         NMat0=    1 NMatS0=      1 NMatT0=    0 NMatD0=    1 NMtDS0=    0 NMtDT0=    0
 Petite list used in FoFCou.
 Harris En= -76.1132074826601    
 JPrj=0 DoOrth=F DoCkMO=F.
 Initial guess orbital symmetries:
       Occupied  (A1) (A1) (B2) (A1) (B1)
       Virtual   (A1) (B2) (A1) (B2) (B1) (A1) (B2) (A1) (A2) (A1)
                 (B1) (A1) (B2) (B2) (B1) (A2) (A1) (A1) (B2) (A1)
 The electronic state of the initial guess is 1-A1.
 Leave Link  401 at Fri Mar  6 20:17:51 2015, MaxMem=   134217728 cpu:         0.2
 (Enter /opt/g09_D01_em64t/g09/l601.exe)
 Copying SCF densities to generalized density rwf, IOpCl= 0 IROHF=0.

 **********************************************************************

            Population analysis using the SCF density.

 **********************************************************************

 Orbital symmetries:
       Occupied  (A1) (A1) (B2) (A1) (B1)
       Virtual   (A1) (B2) (A1) (B2) (B1) (A1) (B2) (A1) (A2) (A1)
                 (B1) (A1) (B2) (B2) (B1) (A2) (A1) (A1) (B2) (A1)
 The electronic state is 1-A1.
 Alpha  occ. eigenvalues --  -18.79952  -1.06498  -0.61973  -0.48550  -0.42109
 Alpha virt. eigenvalues --   -0.02314   0.05138   0.63312   0.64715   0.68428
 Alpha virt. eigenvalues --    0.72130   0.83269   1.00107   1.31575   1.36669
 Alpha virt. eigenvalues --    1.44021   2.03015   2.08502   2.27856   2.46129
 Alpha virt. eigenvalues --    2.49513   2.85796   3.13382   3.31123   3.48934
     Molecular Orbital Coefficients:
                           1         2         3         4         5
                        (A1)--O   (A1)--O   (B2)--O   (A1)--O   (B1)--O
     Eigenvalues --   -18.79952  -1.06498  -0.61973  -0.48550  -0.42109
   1 1   O  1S          0.99018  -0.21915   0.00000  -0.07016   0.00000
   2        2S          0.03120   0.49854   0.00000   0.15276   0.00000
   3        2PX         0.00000   0.00000   0.00000   0.00000   0.68909
   4        2PY         0.00000   0.00000   0.57699   0.00000   0.00000
   5        2PZ        -0.00012  -0.10819   0.00000   0.62498   0.00000
   6        3S          0.02370   0.42549   0.00000   0.28592   0.00000
   7        3PX         0.00000   0.00000   0.00000   0.00000   0.44589
   8        3PY         0.00000   0.00000   0.26166   0.00000   0.00000
   9        3PZ        -0.00154  -0.03369   0.00000   0.36277   0.00000
  10        4XX        -0.01358  -0.00182   0.00000   0.00432   0.00000
  11        4YY        -0.01362   0.00437   0.00000   0.00182   0.00000
  12        4ZZ        -0.01345   0.00499   0.00000  -0.02848   0.00000
  13        4XY         0.00000   0.00000   0.00000   0.00000   0.00000
  14        4XZ         0.00000   0.00000   0.00000   0.00000  -0.02026
  15        4YZ         0.00000   0.00000  -0.02228   0.00000   0.00000
  16 2   H  1S          0.00055   0.13528   0.21938  -0.12463   0.00000
  17        2S         -0.00331   0.00348   0.08714  -0.06029   0.00000
  18        3PX         0.00000   0.00000   0.00000   0.00000   0.01882
  19        3PY        -0.00005  -0.02111  -0.00953   0.01284   0.00000
  20        3PZ         0.00022   0.01242   0.01735   0.00721   0.00000
  21 3   H  1S          0.00055   0.13528  -0.21938  -0.12463   0.00000
  22        2S         -0.00331   0.00348  -0.08714  -0.06029   0.00000
  23        3PX         0.00000   0.00000   0.00000   0.00000   0.01882
  24        3PY         0.00005   0.02111  -0.00953  -0.01284   0.00000
  25        3PZ         0.00022   0.01242  -0.01735   0.00721   0.00000
                           6         7         8         9        10
                        (A1)--V   (B2)--V   (A1)--V   (B2)--V   (B1)--V
     Eigenvalues --    -0.02314   0.05138   0.63312   0.64715   0.68428
   1 1   O  1S         -0.10460   0.00000  -0.02749   0.00000   0.00000
   2        2S          0.19227   0.00000  -0.18650   0.00000   0.00000
   3        2PX         0.00000   0.00000   0.00000   0.00000  -0.92783
   4        2PY         0.00000  -0.43515   0.00000   0.19073   0.00000
   5        2PZ        -0.25565   0.00000  -0.74766   0.00000   0.00000
   6        3S          1.14229   0.00000   0.19760   0.00000   0.00000
   7        3PX         0.00000   0.00000   0.00000   0.00000   1.05955
   8        3PY         0.00000  -0.64437   0.00000   0.11195   0.00000
   9        3PZ        -0.37094   0.00000   0.79281   0.00000   0.00000
  10        4XX        -0.03360   0.00000   0.01875   0.00000   0.00000
  11        4YY        -0.04938   0.00000  -0.30703   0.00000   0.00000
  12        4ZZ        -0.02756   0.00000  -0.13944   0.00000   0.00000
  13        4XY         0.00000   0.00000   0.00000   0.00000   0.00000
  14        4XZ         0.00000   0.00000   0.00000   0.00000  -0.01723
  15        4YZ         0.00000  -0.00981   0.00000   0.30054   0.00000
  16 2   H  1S         -0.13562   0.15567  -0.39580  -0.75032   0.00000
  17        2S         -0.91998   1.18415   0.46828   0.82954   0.00000
  18        3PX         0.00000   0.00000   0.00000   0.00000   0.00339
  19        3PY        -0.01127   0.00359  -0.12998  -0.04435   0.00000
  20        3PZ         0.00538  -0.00850   0.05313   0.09270   0.00000
  21 3   H  1S         -0.13562  -0.15567  -0.39580   0.75032   0.00000
  22        2S         -0.91998  -1.18415   0.46828  -0.82954   0.00000
  23        3PX         0.00000   0.00000   0.00000   0.00000   0.00339
  24        3PY         0.01127   0.00359   0.12998  -0.04435   0.00000
  25        3PZ         0.00538   0.00850   0.05313  -0.09270   0.00000
                          11        12        13        14        15
                        (A1)--V   (B2)--V   (A1)--V   (A2)--V   (A1)--V
     Eigenvalues --     0.72130   0.83269   1.00107   1.31575   1.36669
   1 1   O  1S          0.03055   0.00000  -0.06695   0.00000   0.02464
   2        2S         -0.63780   0.00000  -1.50073   0.00000   0.29777
   3        2PX         0.00000   0.00000   0.00000   0.00000   0.00000
   4        2PY         0.00000  -0.83304   0.00000   0.00000   0.00000
   5        2PZ        -0.35674   0.00000   0.31517   0.00000  -0.05647
   6        3S          1.00658   0.00000   3.61469   0.00000  -0.81570
   7        3PX         0.00000   0.00000   0.00000   0.00000   0.00000
   8        3PY         0.00000   1.86672   0.00000   0.00000   0.00000
   9        3PZ         0.66896   0.00000  -0.88144   0.00000   0.44555
  10        4XX        -0.29706   0.00000  -0.29195   0.00000  -0.34458
  11        4YY         0.05135   0.00000  -0.60373   0.00000  -0.24053
  12        4ZZ        -0.18744   0.00000  -0.31577   0.00000   0.84067
  13        4XY         0.00000   0.00000   0.00000   0.71048   0.00000
  14        4XZ         0.00000   0.00000   0.00000   0.00000   0.00000
  15        4YZ         0.00000  -0.05545   0.00000   0.00000   0.00000
  16 2   H  1S          0.65007  -0.15144  -0.20956   0.00000   0.21005
  17        2S         -0.50532  -1.03688  -0.86495   0.00000   0.14353
  18        3PX         0.00000   0.00000   0.00000   0.31891   0.00000
  19        3PY         0.06688   0.13466  -0.01779   0.00000  -0.14195
  20        3PZ         0.02410  -0.05987  -0.09809   0.00000  -0.22591
  21 3   H  1S          0.65007   0.15144  -0.20956   0.00000   0.21005
  22        2S         -0.50532   1.03688  -0.86495   0.00000   0.14353
  23        3PX         0.00000   0.00000   0.00000  -0.31891   0.00000
  24        3PY        -0.06688   0.13466   0.01779   0.00000   0.14195
  25        3PZ         0.02410   0.05987  -0.09809   0.00000  -0.22591
                          16        17        18        19        20
                        (B1)--V   (A1)--V   (B2)--V   (B2)--V   (B1)--V
     Eigenvalues --     1.44021   2.03015   2.08502   2.27856   2.46129
   1 1   O  1S          0.00000  -0.05282   0.00000   0.00000   0.00000
   2        2S          0.00000  -0.57709   0.00000   0.00000   0.00000
   3        2PX         0.00861   0.00000   0.00000   0.00000  -0.01797
   4        2PY         0.00000   0.00000  -0.12225   0.29510   0.00000
   5        2PZ         0.00000   0.17577   0.00000   0.00000   0.00000
   6        3S          0.00000   1.45882   0.00000   0.00000   0.00000
   7        3PX         0.17781   0.00000   0.00000   0.00000  -0.42830
   8        3PY         0.00000   0.00000   0.66439  -0.41789   0.00000
   9        3PZ         0.00000  -0.66187   0.00000   0.00000   0.00000
  10        4XX         0.00000  -1.05824   0.00000   0.00000   0.00000
  11        4YY         0.00000   0.53435   0.00000   0.00000   0.00000
  12        4ZZ         0.00000  -0.00066   0.00000   0.00000   0.00000
  13        4XY         0.00000   0.00000   0.00000   0.00000   0.00000
  14        4XZ         0.82962   0.00000   0.00000   0.00000   0.67126
  15        4YZ         0.00000   0.00000  -0.07880   0.85598   0.00000
  16 2   H  1S          0.00000  -0.67878  -0.29142   0.55889   0.00000
  17        2S          0.00000  -0.09987  -0.08108  -0.20815   0.00000
  18        3PX        -0.25827   0.00000   0.00000   0.00000   0.77420
  19        3PY         0.00000  -0.12031  -0.50267   0.17501   0.00000
  20        3PZ         0.00000   0.18603  -0.53296  -0.37479   0.00000
  21 3   H  1S          0.00000  -0.67878   0.29142  -0.55889   0.00000
  22        2S          0.00000  -0.09987   0.08108   0.20815   0.00000
  23        3PX        -0.25827   0.00000   0.00000   0.00000   0.77420
  24        3PY         0.00000   0.12031  -0.50267   0.17501   0.00000
  25        3PZ         0.00000   0.18603   0.53296   0.37479   0.00000
                          21        22        23        24        25
                        (A2)--V   (A1)--V   (A1)--V   (B2)--V   (A1)--V
     Eigenvalues --     2.49513   2.85796   3.13382   3.31123   3.48934
   1 1   O  1S          0.00000   0.02306  -0.28717   0.00000  -0.38308
   2        2S          0.00000  -0.11780   0.23680   0.00000   0.07757
   3        2PX         0.00000   0.00000   0.00000   0.00000   0.00000
   4        2PY         0.00000   0.00000   0.00000  -0.71528   0.00000
   5        2PZ         0.00000  -0.04569  -0.36824   0.00000   0.47522
   6        3S          0.00000   0.15205   3.09350   0.00000   2.43180
   7        3PX         0.00000   0.00000   0.00000   0.00000   0.00000
   8        3PY         0.00000   0.00000   0.00000  -1.41391   0.00000
   9        3PZ         0.00000  -0.49993  -0.73263   0.00000   0.14693
  10        4XX         0.00000  -0.00535  -1.26491   0.00000  -1.04177
  11        4YY         0.00000  -0.62060  -0.08334   0.00000  -2.08349
  12        4ZZ         0.00000   0.94993  -0.65651   0.00000  -1.42157
  13        4XY         0.87359   0.00000   0.00000   0.00000   0.00000
  14        4XZ         0.00000   0.00000   0.00000   0.00000   0.00000
  15        4YZ         0.00000   0.00000   0.00000   1.43108   0.00000
  16 2   H  1S          0.00000  -0.12111  -0.68356   1.18797   0.75124
  17        2S          0.00000  -0.09357  -0.61085   0.57227  -0.25592
  18        3PX        -0.73306   0.00000   0.00000   0.00000   0.00000
  19        3PY         0.00000   0.54558   0.68616  -0.87325  -0.55074
  20        3PZ         0.00000   0.62664  -0.47223   0.62745   0.52113
  21 3   H  1S          0.00000  -0.12111  -0.68356  -1.18797   0.75124
  22        2S          0.00000  -0.09357  -0.61085  -0.57227  -0.25592
  23        3PX         0.73306   0.00000   0.00000   0.00000   0.00000
  24        3PY         0.00000  -0.54558  -0.68616  -0.87325   0.55074
  25        3PZ         0.00000   0.62664  -0.47223  -0.62745   0.52113
     Density Matrix:
                           1         2         3         4         5
   1 1   O  1S          2.06680
   2        2S         -0.17816   0.54570
   3        2PX         0.00000   0.00000   0.94970
   4        2PY         0.00000   0.00000   0.00000   0.66584
   5        2PZ        -0.04052   0.08307   0.00000   0.00000   0.80462
   6        3S         -0.17967   0.51309   0.00000   0.00000   0.26532
   7        3PX         0.00000   0.00000   0.61452   0.00000   0.00000
   8        3PY         0.00000   0.00000   0.00000   0.30195   0.00000
   9        3PZ        -0.03919   0.07715   0.00000   0.00000   0.46075
  10        4XX        -0.02669  -0.00134   0.00000   0.00000   0.00580
  11        4YY        -0.02914   0.00406   0.00000   0.00000   0.00133
  12        4ZZ        -0.02483  -0.00457   0.00000   0.00000  -0.03668
  13        4XY         0.00000   0.00000   0.00000   0.00000   0.00000
  14        4XZ         0.00000   0.00000  -0.02792   0.00000   0.00000
  15        4YZ         0.00000   0.00000   0.00000  -0.02572   0.00000
  16 2   H  1S         -0.04071   0.09684   0.00000   0.25317  -0.18506
  17        2S          0.00038  -0.01516   0.00000   0.10055  -0.07611
  18        3PX         0.00000   0.00000   0.02594   0.00000   0.00000
  19        3PY         0.00736  -0.01713   0.00000  -0.01100   0.02062
  20        3PZ        -0.00602   0.01460   0.00000   0.02002   0.00632
  21 3   H  1S         -0.04071   0.09684   0.00000  -0.25317  -0.18506
  22        2S          0.00038  -0.01516   0.00000  -0.10055  -0.07611
  23        3PX         0.00000   0.00000   0.02594   0.00000   0.00000
  24        3PY        -0.00736   0.01713   0.00000  -0.01100  -0.02062
  25        3PZ        -0.00602   0.01460   0.00000  -0.02002   0.00632
                           6         7         8         9        10
   6        3S          0.52672
   7        3PX         0.00000   0.39764
   8        3PY         0.00000   0.00000   0.13693
   9        3PZ         0.17871   0.00000   0.00000   0.26549
  10        4XX         0.00028   0.00000   0.00000   0.00330   0.00041
  11        4YY         0.00411   0.00000   0.00000   0.00106   0.00037
  12        4ZZ        -0.01268   0.00000   0.00000  -0.02096   0.00010
  13        4XY         0.00000   0.00000   0.00000   0.00000   0.00000
  14        4XZ         0.00000  -0.01807   0.00000   0.00000   0.00000
  15        4YZ         0.00000   0.00000  -0.01166   0.00000   0.00000
  16 2   H  1S          0.04388   0.00000   0.11481  -0.09954  -0.00158
  17        2S         -0.03167   0.00000   0.04560  -0.04397  -0.00044
  18        3PX         0.00000   0.01678   0.00000   0.00000   0.00000
  19        3PY        -0.01063   0.00000  -0.00499   0.01074   0.00019
  20        3PZ         0.01470   0.00000   0.00908   0.00439   0.00001
  21 3   H  1S          0.04388   0.00000  -0.11481  -0.09954  -0.00158
  22        2S         -0.03167   0.00000  -0.04560  -0.04397  -0.00044
  23        3PX         0.00000   0.01678   0.00000   0.00000   0.00000
  24        3PY         0.01063   0.00000  -0.00499  -0.01074  -0.00019
  25        3PZ         0.01470   0.00000  -0.00908   0.00439   0.00001
                          11        12        13        14        15
  11        4YY         0.00042
  12        4ZZ         0.00031   0.00203
  13        4XY         0.00000   0.00000   0.00000
  14        4XZ         0.00000   0.00000   0.00000   0.00082
  15        4YZ         0.00000   0.00000   0.00000   0.00000   0.00099
  16 2   H  1S          0.00071   0.00843   0.00000   0.00000  -0.00978
  17        2S         -0.00010   0.00356   0.00000   0.00000  -0.00388
  18        3PX         0.00000   0.00000   0.00000  -0.00076   0.00000
  19        3PY        -0.00014  -0.00094   0.00000   0.00000   0.00042
  20        3PZ         0.00013  -0.00029   0.00000   0.00000  -0.00077
  21 3   H  1S          0.00071   0.00843   0.00000   0.00000   0.00978
  22        2S         -0.00010   0.00356   0.00000   0.00000   0.00388
  23        3PX         0.00000   0.00000   0.00000  -0.00076   0.00000
  24        3PY         0.00014   0.00094   0.00000   0.00000   0.00042
  25        3PZ         0.00013  -0.00029   0.00000   0.00000   0.00077
                          16        17        18        19        20
  16 2   H  1S          0.16393
  17        2S          0.05420   0.02250
  18        3PX         0.00000   0.00000   0.00071
  19        3PY        -0.01309  -0.00336   0.00000   0.00140
  20        3PZ         0.00918   0.00224   0.00000  -0.00067   0.00101
  21 3   H  1S         -0.02859  -0.02227   0.00000  -0.00473  -0.00605
  22        2S         -0.02227  -0.00787   0.00000  -0.00003  -0.00381
  23        3PX         0.00000   0.00000   0.00071   0.00000   0.00000
  24        3PY         0.00473   0.00003   0.00000  -0.00104   0.00001
  25        3PZ        -0.00605  -0.00381   0.00000  -0.00001  -0.00019
                          21        22        23        24        25
  21 3   H  1S          0.16393
  22        2S          0.05420   0.02250
  23        3PX         0.00000   0.00000   0.00071
  24        3PY         0.01309   0.00336   0.00000   0.00140
  25        3PZ         0.00918   0.00224   0.00000   0.00067   0.00101
    Full Mulliken population analysis:
                           1         2         3         4         5
   1 1   O  1S          2.06680
   2        2S         -0.04163   0.54570
   3        2PX         0.00000   0.00000   0.94970
   4        2PY         0.00000   0.00000   0.00000   0.66584
   5        2PZ         0.00000   0.00000   0.00000   0.00000   0.80462
   6        3S         -0.03006   0.39181   0.00000   0.00000   0.00000
   7        3PX         0.00000   0.00000   0.30819   0.00000   0.00000
   8        3PY         0.00000   0.00000   0.00000   0.15143   0.00000
   9        3PZ         0.00000   0.00000   0.00000   0.00000   0.23107
  10        4XX        -0.00090  -0.00073   0.00000   0.00000   0.00000
  11        4YY        -0.00098   0.00222   0.00000   0.00000   0.00000
  12        4ZZ        -0.00083  -0.00250   0.00000   0.00000   0.00000
  13        4XY         0.00000   0.00000   0.00000   0.00000   0.00000
  14        4XZ         0.00000   0.00000   0.00000   0.00000   0.00000
  15        4YZ         0.00000   0.00000   0.00000   0.00000   0.00000
  16 2   H  1S         -0.00141   0.02394   0.00000   0.05918   0.03058
  17        2S          0.00003  -0.00575   0.00000   0.01214   0.00649
  18        3PX         0.00000   0.00000   0.00369   0.00000   0.00000
  19        3PY        -0.00034   0.00472   0.00000   0.00228   0.00510
  20        3PZ        -0.00020   0.00284   0.00000   0.00495  -0.00020
  21 3   H  1S         -0.00141   0.02394   0.00000   0.05918   0.03058
  22        2S          0.00003  -0.00575   0.00000   0.01214   0.00649
  23        3PX         0.00000   0.00000   0.00369   0.00000   0.00000
  24        3PY        -0.00034   0.00472   0.00000   0.00228   0.00510
  25        3PZ        -0.00020   0.00284   0.00000   0.00495  -0.00020
                           6         7         8         9        10
   6        3S          0.52672
   7        3PX         0.00000   0.39764
   8        3PY         0.00000   0.00000   0.13693
   9        3PZ         0.00000   0.00000   0.00000   0.26549
  10        4XX         0.00019   0.00000   0.00000   0.00000   0.00041
  11        4YY         0.00287   0.00000   0.00000   0.00000   0.00012
  12        4ZZ        -0.00886   0.00000   0.00000   0.00000   0.00003
  13        4XY         0.00000   0.00000   0.00000   0.00000   0.00000
  14        4XZ         0.00000   0.00000   0.00000   0.00000   0.00000
  15        4YZ         0.00000   0.00000   0.00000   0.00000   0.00000
  16 2   H  1S          0.01870   0.00000   0.05470   0.03352  -0.00026
  17        2S         -0.02163   0.00000   0.01793   0.01222  -0.00018
  18        3PX         0.00000   0.00464   0.00000   0.00000   0.00000
  19        3PY         0.00226   0.00000  -0.00007   0.00200  -0.00003
  20        3PZ         0.00221   0.00000   0.00169   0.00064   0.00000
  21 3   H  1S          0.01870   0.00000   0.05470   0.03352  -0.00026
  22        2S         -0.02163   0.00000   0.01793   0.01222  -0.00018
  23        3PX         0.00000   0.00464   0.00000   0.00000   0.00000
  24        3PY         0.00226   0.00000  -0.00007   0.00200  -0.00003
  25        3PZ         0.00221   0.00000   0.00169   0.00064   0.00000
                          11        12        13        14        15
  11        4YY         0.00042
  12        4ZZ         0.00010   0.00203
  13        4XY         0.00000   0.00000   0.00000
  14        4XZ         0.00000   0.00000   0.00000   0.00082
  15        4YZ         0.00000   0.00000   0.00000   0.00000   0.00099
  16 2   H  1S          0.00030   0.00249   0.00000   0.00000   0.00310
  17        2S         -0.00004   0.00150   0.00000   0.00000   0.00023
  18        3PX         0.00000   0.00000   0.00000   0.00017   0.00000
  19        3PY         0.00002   0.00031   0.00000   0.00000   0.00010
  20        3PZ         0.00005   0.00001   0.00000   0.00000   0.00000
  21 3   H  1S          0.00030   0.00249   0.00000   0.00000   0.00310
  22        2S         -0.00004   0.00150   0.00000   0.00000   0.00023
  23        3PX         0.00000   0.00000   0.00000   0.00017   0.00000
  24        3PY         0.00002   0.00031   0.00000   0.00000   0.00010
  25        3PZ         0.00005   0.00001   0.00000   0.00000   0.00000
                          16        17        18        19        20
  16 2   H  1S          0.16393
  17        2S          0.03568   0.02250
  18        3PX         0.00000   0.00000   0.00071
  19        3PY         0.00000   0.00000   0.00000   0.00140
  20        3PZ         0.00000   0.00000   0.00000   0.00000   0.00101
  21 3   H  1S         -0.00122  -0.00463   0.00000   0.00024   0.00000
  22        2S         -0.00463  -0.00388   0.00000   0.00000   0.00000
  23        3PX         0.00000   0.00000   0.00001   0.00000   0.00000
  24        3PY         0.00024   0.00000   0.00000   0.00007   0.00000
  25        3PZ         0.00000   0.00000   0.00000   0.00000   0.00000
                          21        22        23        24        25
  21 3   H  1S          0.16393
  22        2S          0.03568   0.02250
  23        3PX         0.00000   0.00000   0.00071
  24        3PY         0.00000   0.00000   0.00000   0.00140
  25        3PZ         0.00000   0.00000   0.00000   0.00000   0.00101
     Gross orbital populations:
                           1
   1 1   O  1S          1.98855
   2        2S          0.94638
   3        2PX         1.26527
   4        2PY         0.97438
   5        2PZ         1.11961
   6        3S          0.88578
   7        3PX         0.71512
   8        3PY         0.43686
   9        3PZ         0.59330
  10        4XX        -0.00180
  11        4YY         0.00541
  12        4ZZ        -0.00139
  13        4XY         0.00000
  14        4XZ         0.00117
  15        4YZ         0.00785
  16 2   H  1S          0.41885
  17        2S          0.07261
  18        3PX         0.00922
  19        3PY         0.01807
  20        3PZ         0.01300
  21 3   H  1S          0.41885
  22        2S          0.07261
  23        3PX         0.00922
  24        3PY         0.01807
  25        3PZ         0.01300
          Condensed to atoms (all electrons):
               1          2          3
     1  O    8.367250   0.284622   0.284622
     2  H    0.284622   0.260913  -0.013783
     3  H    0.284622  -0.013783   0.260913
 Mulliken charges:
               1
     1  O   -0.936494
     2  H    0.468247
     3  H    0.468247
 Sum of Mulliken charges =   0.00000
 Mulliken charges with hydrogens summed into heavy atoms:
               1
     1  O    0.000000
 N-N= 9.157115984281D+00 E-N=-2.021683667294D+02  KE= 7.723540265685D+01
 Symmetry A1   KE= 6.814949557249D+01
 Symmetry A2   KE= 0.000000000000D+00
 Symmetry B1   KE= 5.010753801448D+00
 Symmetry B2   KE= 4.075153282921D+00
 Orbital energies and kinetic energies (alpha):
                                 1                 2
   1         (A1)--O         -18.799524         28.873042
   2         (A1)--O          -1.064979          2.773826
   3         (B2)--O          -0.619732          2.037577
   4         (A1)--O          -0.485499          2.427880
   5         (B1)--O          -0.421092          2.505377
   6         (A1)--V          -0.023138          1.225298
   7         (B2)--V           0.051377          1.307402
   8         (A1)--V           0.633121          2.941344
   9         (B2)--V           0.647146          2.051807
  10         (B1)--V           0.684283          3.344980
  11         (A1)--V           0.721301          2.375940
  12         (B2)--V           0.832690          2.975123
  13         (A1)--V           1.001072          2.323135
  14         (A2)--V           1.315754          2.513963
  15         (A1)--V           1.366690          2.550547
  16         (B1)--V           1.440209          2.633315
  17         (A1)--V           2.030153          3.408706
  18         (B2)--V           2.085023          3.110595
  19         (B2)--V           2.278557          3.773233
  20         (B1)--V           2.461290          3.507351
  21         (A2)--V           2.495132          3.596688
  22         (A1)--V           2.857958          4.018504
  23         (A1)--V           3.133823          6.860940
  24         (B2)--V           3.311232          5.583018
  25         (A1)--V           3.489336          8.302978
 Total kinetic energy from orbitals= 7.723540265685D+01
 No NMR shielding tensors so no spin-rotation constants.
 Leave Link  601 at Fri Mar  6 20:17:51 2015, MaxMem=   134217728 cpu:         0.2
 (Enter /opt/g09_D01_em64t/g09/l9999.exe)

 This type of calculation cannot be archived.


 IT MATTERS NOT HOW DEEP YOU PLOW,
 BUT HOW LONG YOU STAY IN THE FURROW.
 Job cpu time:       0 days  0 hours  0 minutes  0.9 seconds.
 File lengths (MBytes):  RWF=      5 Int=      0 D2E=      0 Chk=      1 Scr=      1
 Normal termination of Gaussian 09 at Fri Mar  6 20:17:51 2015.
